 Entering Gaussian System, Link 0=g16
 Initial command:
 /share/programs/G16_SLATER//g16/l1.exe "/scratch/Gau-1787.inp" -scrdir="/scratch/"
 Entering Link 1 = /share/programs/G16_SLATER//g16/l1.exe PID=      1863.
  
 Copyright (c) 1988,1990,1992,1993,1995,1998,2003,2009,2016,
            Gaussian, Inc.  All Rights Reserved.
  
 This is part of the Gaussian(R) 16 program.  It is based on
 the Gaussian(R) 09 system (copyright 2009, Gaussian, Inc.),
 the Gaussian(R) 03 system (copyright 2003, Gaussian, Inc.),
 the Gaussian(R) 98 system (copyright 1998, Gaussian, Inc.),
 the Gaussian(R) 94 system (copyright 1995, Gaussian, Inc.),
 the Gaussian 92(TM) system (copyright 1992, Gaussian, Inc.),
 the Gaussian 90(TM) system (copyright 1990, Gaussian, Inc.),
 the Gaussian 88(TM) system (copyright 1988, Gaussian, Inc.),
 the Gaussian 86(TM) system (copyright 1986, Carnegie Mellon
 University), and the Gaussian 82(TM) system (copyright 1983,
 Carnegie Mellon University). Gaussian is a federally registered
 trademark of Gaussian, Inc.
  
 This software contains proprietary and confidential information,
 including trade secrets, belonging to Gaussian, Inc.
  
 This software is provided under written license and may be
 used, copied, transmitted, or stored only in accord with that
 written license.
  
 The following legend is applicable only to US Government
 contracts under FAR:
  
                    RESTRICTED RIGHTS LEGEND
  
 Use, reproduction and disclosure by the US Government is
 subject to restrictions as set forth in subparagraphs (a)
 and (c) of the Commercial Computer Software - Restricted
 Rights clause in FAR 52.227-19.
  
 Gaussian, Inc.
 340 Quinnipiac St., Bldg. 40, Wallingford CT 06492
  
  
 ---------------------------------------------------------------
 Warning -- This program may not be used in any manner that
 competes with the business of Gaussian, Inc. or will provide
 assistance to any competitor of Gaussian, Inc.  The licensee
 of this program is prohibited from giving any competitor of
 Gaussian, Inc. access to this program.  By using this program,
 the user acknowledges that Gaussian, Inc. is engaged in the
 business of creating and licensing software in the field of
 computational chemistry and represents and warrants to the
 licensee that it is not a competitor of Gaussian, Inc. and that
 it will not use this program in any manner prohibited above.
 ---------------------------------------------------------------
  

 Cite this work as:
 Gaussian 16, Revision A.03,
 M. J. Frisch, G. W. Trucks, H. B. Schlegel, G. E. Scuseria, 
 M. A. Robb, J. R. Cheeseman, G. Scalmani, V. Barone, 
 G. A. Petersson, H. Nakatsuji, X. Li, M. Caricato, A. V. Marenich, 
 J. Bloino, B. G. Janesko, R. Gomperts, B. Mennucci, H. P. Hratchian, 
 J. V. Ortiz, A. F. Izmaylov, J. L. Sonnenberg, D. Williams-Young, 
 F. Ding, F. Lipparini, F. Egidi, J. Goings, B. Peng, A. Petrone, 
 T. Henderson, D. Ranasinghe, V. G. Zakrzewski, J. Gao, N. Rega, 
 G. Zheng, W. Liang, M. Hada, M. Ehara, K. Toyota, R. Fukuda, 
 J. Hasegawa, M. Ishida, T. Nakajima, Y. Honda, O. Kitao, H. Nakai, 
 T. Vreven, K. Throssell, J. A. Montgomery, Jr., J. E. Peralta, 
 F. Ogliaro, M. J. Bearpark, J. J. Heyd, E. N. Brothers, K. N. Kudin, 
 V. N. Staroverov, T. A. Keith, R. Kobayashi, J. Normand, 
 K. Raghavachari, A. P. Rendell, J. C. Burant, S. S. Iyengar, 
 J. Tomasi, M. Cossi, J. M. Millam, M. Klene, C. Adamo, R. Cammi, 
 J. W. Ochterski, R. L. Martin, K. Morokuma, O. Farkas, 
 J. B. Foresman, and D. J. Fox, Gaussian, Inc., Wallingford CT, 2016.
 
 ******************************************
 Gaussian 16:  ES64L-G16RevA.03 25-Dec-2016
                 3-Sep-2021 
 ******************************************
 %nproc=8
 Will use up to    8 processors via shared memory.
 %mem=1000MB
 ----------------------------------------------------------------------
 #P b3lyp/6-31G SCF(Tight) CPHF(Separate) Int(Grid=SuperFine) NMR geom=
 connectivity
 ----------------------------------------------------------------------
 1/38=1,57=2,172=1/1;
 2/12=2,17=6,18=5,40=1/2;
 3/5=1,6=6,11=2,25=1,30=1,74=-5,75=-7/1,2,3,8;
 4//1;
 5/5=2,32=2,38=5/2;
 8/6=1,10=90,11=11/1;
 10/8=1,13=100,45=16/2;
 6/7=2,8=2,9=2,10=2,28=1/1;
 99/9=1/99;
 Leave Link    1 at Fri Sep  3 11:21:02 2021, MaxMem=   131072000 cpu:               0.5 elap:               0.1
 (Enter /share/programs/G16_SLATER//g16/l101.exe)
 -----
 Title
 -----
 Symbolic Z-matrix:
 Charge =  0 Multiplicity = 1
 C                     2.45076  -0.71174   0. 
 C                     2.45076   0.71174   0. 
 C                     1.25139   1.41137   0. 
 C                     0.        0.72289   0. 
 C                    -1.25139   1.41137   0. 
 C                    -2.45076   0.71174   0. 
 C                    -2.45076  -0.71174   0. 
 C                    -1.25139  -1.41137   0. 
 C                     0.       -0.72289   0. 
 C                     1.25139  -1.41137   0. 
 H                     3.40873  -1.25791   0. 
 H                     3.40873   1.25791   0. 
 H                     1.24972   2.51472   0. 
 H                    -1.24972   2.51472   0. 
 H                    -3.40873   1.25791   0. 
 H                    -3.40873  -1.25791   0. 
 H                    -1.24972  -2.51472   0. 
 H                     1.24972  -2.51472   0. 
 Bq                    1.74365  -0.71174  -0.70711 
 Bq                    1.74365  -0.71174   0.70711 
 Bq                    2.06808  -0.71174  -0.92388 
 Bq                    2.06808  -0.71174   0.92388 
 Bq                    2.16208  -1.11999  -0.86603 
 Bq                    2.16208  -1.11999   0.86603 
 Bq                    2.16208  -0.30349  -0.86603 
 Bq                    2.16208  -0.30349   0.86603 
 Bq                    2.45076  -1.71174   0. 
 Bq                    2.45076  -1.52824  -0.57735 
 Bq                    2.45076  -1.52824   0.57735 
 Bq                    2.45076  -0.71174  -1. 
 Bq                    2.45076  -0.71174   1. 
 Bq                    2.73944  -1.11999  -0.86603 
 Bq                    2.73944  -1.11999   0.86603 
 Bq                    2.73944  -0.30349  -0.86603 
 Bq                    2.73944  -0.30349   0.86603 
 Bq                    2.83344  -0.71174  -0.92388 
 Bq                    2.83344  -0.71174   0.92388 
 Bq                    2.95076  -0.00463  -0.5 
 Bq                    2.95076  -0.00463   0.5 
 Bq                    3.10404  -0.32906  -0.65328 
 Bq                    3.10404  -0.32906   0.65328 
 Bq                    3.31679  -0.30349  -0.28868 
 Bq                    3.31679  -0.30349   0.28868 
 Bq                    1.74365   0.71174  -0.70711 
 Bq                    1.74365   0.71174   0.70711 
 Bq                    2.06808   0.71174  -0.92388 
 Bq                    2.06808   0.71174   0.92388 
 Bq                    2.16208   0.30349  -0.86603 
 Bq                    2.16208   0.30349   0.86603 
 Bq                    2.16208   1.11999  -0.86603 
 Bq                    2.16208   1.11999   0.86603 
 Bq                    2.45076   0.71174  -1. 
 Bq                    2.45076   0.71174   1. 
 Bq                    2.45076   1.52824  -0.57735 
 Bq                    2.45076   1.52824   0.57735 
 Bq                    2.45076   1.71174   0. 
 Bq                    2.73944   0.30349  -0.86603 
 Bq                    2.73944   0.30349   0.86603 
 Bq                    2.73944   1.11999  -0.86603 
 Bq                    2.73944   1.11999   0.86603 
 Bq                    2.83344   0.71174  -0.92388 
 Bq                    2.83344   0.71174   0.92388 
 Bq                    2.95076   0.00463  -0.5 
 Bq                    2.95076   0.00463   0.5 
 Bq                    3.10404   0.32906  -0.65328 
 Bq                    3.10404   0.32906   0.65328 
 Bq                    3.31679   0.30349  -0.28868 
 Bq                    3.31679   0.30349   0.28868 
 Bq                    0.38536   1.81962  -0.28868 
 Bq                    0.38536   1.81962   0.28868 
 Bq                    0.54428   1.41137  -0.70711 
 Bq                    0.54428   1.41137   0.70711 
 Bq                    0.59811   1.79405  -0.65328 
 Bq                    0.59811   1.79405   0.65328 
 Bq                    0.86871   1.41137  -0.92388 
 Bq                    0.86871   1.41137   0.92388 
 Bq                    0.96271   1.00312  -0.86603 
 Bq                    0.96271   1.00312   0.86603 
 Bq                    0.96271   1.81962  -0.86603 
 Bq                    0.96271   1.81962   0.86603 
 Bq                    1.25139   1.41137  -1. 
 Bq                    1.25139   1.41137   1. 
 Bq                    1.54007   1.00312  -0.86603 
 Bq                    1.54007   1.00312   0.86603 
 Bq                    1.54007   1.81962  -0.86603 
 Bq                    1.54007   1.81962   0.86603 
 Bq                    1.63407   1.41137  -0.92388 
 Bq                    1.63407   1.41137   0.92388 
 Bq                    1.90467   1.79405  -0.65328 
 Bq                    1.90467   1.79405   0.65328 
 Bq                    1.9585    1.41137  -0.70711 
 Bq                    1.9585    1.41137   0.70711 
 Bq                    2.11742   1.81962  -0.28868 
 Bq                    2.11742   1.81962   0.28868 
 Bq                   -0.70711   0.72289  -0.70711 
 Bq                   -0.70711   0.72289   0.70711 
 Bq                   -0.38268   0.72289  -0.92388 
 Bq                   -0.38268   0.72289   0.92388 
 Bq                   -0.28868   0.31464  -0.86603 
 Bq                   -0.28868   0.31464   0.86603 
 Bq                   -0.28868   1.13114  -0.86603 
 Bq                   -0.28868   1.13114   0.86603 
 Bq                   -0.2706    1.64677  -0.2706 
 Bq                   -0.2706    1.64677   0.2706 
 Bq                    0.        0.72289  -1. 
 Bq                    0.        0.72289   1. 
 Bq                    0.        1.53939  -0.57735 
 Bq                    0.        1.53939   0.57735 
 Bq                    0.        1.72289   0. 
 Bq                    0.2706    1.64677  -0.2706 
 Bq                    0.2706    1.64677   0.2706 
 Bq                    0.28868   0.31464  -0.86603 
 Bq                    0.28868   0.31464   0.86603 
 Bq                    0.28868   1.13114  -0.86603 
 Bq                    0.28868   1.13114   0.86603 
 Bq                    0.38268   0.72289  -0.92388 
 Bq                    0.38268   0.72289   0.92388 
 Bq                    0.70711   0.72289  -0.70711 
 Bq                    0.70711   0.72289   0.70711 
 Bq                   -2.11742   1.81962  -0.28868 
 Bq                   -2.11742   1.81962   0.28868 
 Bq                   -1.9585    1.41137  -0.70711 
 Bq                   -1.9585    1.41137   0.70711 
 Bq                   -1.90467   1.79405  -0.65328 
 Bq                   -1.90467   1.79405   0.65328 
 Bq                   -1.63407   1.41137  -0.92388 
 Bq                   -1.63407   1.41137   0.92388 
 Bq                   -1.54007   1.00312  -0.86603 
 Bq                   -1.54007   1.00312   0.86603 
 Bq                   -1.54007   1.81962  -0.86603 
 Bq                   -1.54007   1.81962   0.86603 
 Bq                   -1.25139   1.41137  -1. 
 Bq                   -1.25139   1.41137   1. 
 Bq                   -0.96271   1.00312  -0.86603 
 Bq                   -0.96271   1.00312   0.86603 
 Bq                   -0.96271   1.81962  -0.86603 
 Bq                   -0.96271   1.81962   0.86603 
 Bq                   -0.86871   1.41137  -0.92388 
 Bq                   -0.86871   1.41137   0.92388 
 Bq                   -0.59811   1.79405  -0.65328 
 Bq                   -0.59811   1.79405   0.65328 
 Bq                   -0.54428   1.41137  -0.70711 
 Bq                   -0.54428   1.41137   0.70711 
 Bq                   -0.38536   1.81962  -0.28868 
 Bq                   -0.38536   1.81962   0.28868 
 Bq                   -3.31679   0.30349  -0.28868 
 Bq                   -3.31679   0.30349   0.28868 
 Bq                   -3.10404   0.32906  -0.65328 
 Bq                   -3.10404   0.32906   0.65328 
 Bq                   -2.95076   0.00463  -0.5 
 Bq                   -2.95076   0.00463   0.5 
 Bq                   -2.83344   0.71174  -0.92388 
 Bq                   -2.83344   0.71174   0.92388 
 Bq                   -2.73944   0.30349  -0.86603 
 Bq                   -2.73944   0.30349   0.86603 
 Bq                   -2.73944   1.11999  -0.86603 
 Bq                   -2.73944   1.11999   0.86603 
 Bq                   -2.45076   0.71174  -1. 
 Bq                   -2.45076   0.71174   1. 
 Bq                   -2.45076   1.52824  -0.57735 
 Bq                   -2.45076   1.52824   0.57735 
 Bq                   -2.45076   1.71174   0. 
 Bq                   -2.16208   0.30349  -0.86603 
 Bq                   -2.16208   0.30349   0.86603 
 Bq                   -2.16208   1.11999  -0.86603 
 Bq                   -2.16208   1.11999   0.86603 
 Bq                   -2.06808   0.71174  -0.92388 
 Bq                   -2.06808   0.71174   0.92388 
 Bq                   -1.74365   0.71174  -0.70711 
 Bq                   -1.74365   0.71174   0.70711 
 Bq                   -3.31679  -0.30349  -0.28868 
 Bq                   -3.31679  -0.30349   0.28868 
 Bq                   -3.10404  -0.32906  -0.65328 
 Bq                   -3.10404  -0.32906   0.65328 
 Bq                   -2.95076  -0.00463  -0.5 
 Bq                   -2.95076  -0.00463   0.5 
 Bq                   -2.83344  -0.71174  -0.92388 
 Bq                   -2.83344  -0.71174   0.92388 
 Bq                   -2.73944  -1.11999  -0.86603 
 Bq                   -2.73944  -1.11999   0.86603 
 Bq                   -2.73944  -0.30349  -0.86603 
 Bq                   -2.73944  -0.30349   0.86603 
 Bq                   -2.45076  -1.71174   0. 
 Bq                   -2.45076  -1.52824  -0.57735 
 Bq                   -2.45076  -1.52824   0.57735 
 Bq                   -2.45076  -0.71174  -1. 
 Bq                   -2.45076  -0.71174   1. 
 Bq                   -2.16208  -1.11999  -0.86603 
 Bq                   -2.16208  -1.11999   0.86603 
 Bq                   -2.16208  -0.30349  -0.86603 
 Bq                   -2.16208  -0.30349   0.86603 
 Bq                   -2.06808  -0.71174  -0.92388 
 Bq                   -2.06808  -0.71174   0.92388 
 Bq                   -1.74365  -0.71174  -0.70711 
 Bq                   -1.74365  -0.71174   0.70711 
 Bq                   -2.11742  -1.81962  -0.28868 
 Bq                   -2.11742  -1.81962   0.28868 
 Bq                   -1.9585   -1.41137  -0.70711 
 Bq                   -1.9585   -1.41137   0.70711 
 Bq                   -1.90467  -1.79405  -0.65328 
 Bq                   -1.90467  -1.79405   0.65328 
 Bq                   -1.63407  -1.41137  -0.92388 
 Bq                   -1.63407  -1.41137   0.92388 
 Bq                   -1.54007  -1.81962  -0.86603 
 Bq                   -1.54007  -1.81962   0.86603 
 Bq                   -1.54007  -1.00312  -0.86603 
 Bq                   -1.54007  -1.00312   0.86603 
 Bq                   -1.25139  -1.41137  -1. 
 Bq                   -1.25139  -1.41137   1. 
 Bq                   -0.96271  -1.81962  -0.86603 
 Bq                   -0.96271  -1.81962   0.86603 
 Bq                   -0.96271  -1.00312  -0.86603 
 Bq                   -0.96271  -1.00312   0.86603 
 Bq                   -0.86871  -1.41137  -0.92388 
 Bq                   -0.86871  -1.41137   0.92388 
 Bq                   -0.59811  -1.79405  -0.65328 
 Bq                   -0.59811  -1.79405   0.65328 
 Bq                   -0.54428  -1.41137  -0.70711 
 Bq                   -0.54428  -1.41137   0.70711 
 Bq                   -0.38536  -1.81962  -0.28868 
 Bq                   -0.38536  -1.81962   0.28868 
 Bq                   -0.70711  -0.72289  -0.70711 
 Bq                   -0.70711  -0.72289   0.70711 
 Bq                   -0.38268  -0.72289  -0.92388 
 Bq                   -0.38268  -0.72289   0.92388 
 Bq                   -0.28868  -1.13114  -0.86603 
 Bq                   -0.28868  -1.13114   0.86603 
 Bq                   -0.28868  -0.31464  -0.86603 
 Bq                   -0.28868  -0.31464   0.86603 
 Bq                   -0.2706   -1.64677  -0.2706 
 Bq                   -0.2706   -1.64677   0.2706 
 Bq                    0.       -1.72289   0. 
 Bq                    0.       -1.53939  -0.57735 
 Bq                    0.       -1.53939   0.57735 
 Bq                    0.       -0.72289  -1. 
 Bq                    0.       -0.72289   1. 
 Bq                    0.2706   -1.64677  -0.2706 
 Bq                    0.2706   -1.64677   0.2706 
 Bq                    0.28868  -1.13114  -0.86603 
 Bq                    0.28868  -1.13114   0.86603 
 Bq                    0.28868  -0.31464  -0.86603 
 Bq                    0.28868  -0.31464   0.86603 
 Bq                    0.38268  -0.72289  -0.92388 
 Bq                    0.38268  -0.72289   0.92388 
 Bq                    0.70711  -0.72289  -0.70711 
 Bq                    0.70711  -0.72289   0.70711 
 Bq                    0.38536  -1.81962  -0.28868 
 Bq                    0.38536  -1.81962   0.28868 
 Bq                    0.54428  -1.41137  -0.70711 
 Bq                    0.54428  -1.41137   0.70711 
 Bq                    0.59811  -1.79405  -0.65328 
 Bq                    0.59811  -1.79405   0.65328 
 Bq                    0.86871  -1.41137  -0.92388 
 Bq                    0.86871  -1.41137   0.92388 
 Bq                    0.96271  -1.81962  -0.86603 
 Bq                    0.96271  -1.81962   0.86603 
 Bq                    0.96271  -1.00312  -0.86603 
 Bq                    0.96271  -1.00312   0.86603 
 Bq                    1.25139  -1.41137  -1. 
 Bq                    1.25139  -1.41137   1. 
 Bq                    1.54007  -1.81962  -0.86603 
 Bq                    1.54007  -1.81962   0.86603 
 Bq                    1.54007  -1.00312  -0.86603 
 Bq                    1.54007  -1.00312   0.86603 
 Bq                    1.63407  -1.41137  -0.92388 
 Bq                    1.63407  -1.41137   0.92388 
 Bq                    1.90467  -1.79405  -0.65328 
 Bq                    1.90467  -1.79405   0.65328 
 Bq                    1.9585   -1.41137  -0.70711 
 Bq                    1.9585   -1.41137   0.70711 
 Bq                    2.11742  -1.81962  -0.28868 
 Bq                    2.11742  -1.81962   0.28868 
 Bq                    2.5427   -1.66616  -0.28868 
 Bq                    2.5427   -1.66616   0.28868 
 Bq                    2.75545  -1.64059  -0.65328 
 Bq                    2.75545  -1.64059   0.65328 
 Bq                    2.83138  -2.07441   0. 
 Bq                    2.90873  -1.96502  -0.5 
 Bq                    2.90873  -1.96502   0.5 
 Bq                    3.02605  -1.25791  -0.92388 
 Bq                    3.02605  -1.25791   0.92388 
 Bq                    3.12005  -1.66616  -0.86603 
 Bq                    3.12005  -1.66616   0.86603 
 Bq                    3.12005  -0.84966  -0.86603 
 Bq                    3.12005  -0.84966   0.86603 
 Bq                    3.13813  -2.18179  -0.2706 
 Bq                    3.13813  -2.18179   0.2706 
 Bq                    3.40873  -2.25791   0. 
 Bq                    3.40873  -2.07441  -0.57735 
 Bq                    3.40873  -2.07441   0.57735 
 Bq                    3.40873  -1.25791  -1. 
 Bq                    3.40873  -1.25791   1. 
 Bq                    3.40873  -0.44141  -0.57735 
 Bq                    3.40873  -0.44141   0.57735 
 Bq                    3.40873  -0.25791   0. 
 Bq                    3.67933  -2.18179  -0.2706 
 Bq                    3.67933  -2.18179   0.2706 
 Bq                    3.67933  -0.33403  -0.2706 
 Bq                    3.67933  -0.33403   0.2706 
 Bq                    3.69741  -1.66616  -0.86603 
 Bq                    3.69741  -1.66616   0.86603 
 Bq                    3.69741  -0.84966  -0.86603 
 Bq                    3.69741  -0.84966   0.86603 
 Bq                    3.79141  -1.25791  -0.92388 
 Bq                    3.79141  -1.25791   0.92388 
 Bq                    3.90873  -1.96502  -0.5 
 Bq                    3.90873  -1.96502   0.5 
 Bq                    3.90873  -0.5508   -0.5 
 Bq                    3.90873  -0.5508    0.5 
 Bq                    3.98608  -2.07441   0. 
 Bq                    3.98608  -0.44141   0. 
 Bq                    4.06201  -1.64059  -0.65328 
 Bq                    4.06201  -1.64059   0.65328 
 Bq                    4.06201  -0.87523  -0.65328 
 Bq                    4.06201  -0.87523   0.65328 
 Bq                    4.11584  -1.25791  -0.70711 
 Bq                    4.11584  -1.25791   0.70711 
 Bq                    4.27476  -1.66616  -0.28868 
 Bq                    4.27476  -1.66616   0.28868 
 Bq                    4.27476  -0.84966  -0.28868 
 Bq                    4.27476  -0.84966   0.28868 
 Bq                    4.33261  -1.25791  -0.38268 
 Bq                    4.33261  -1.25791   0.38268 
 Bq                    4.40873  -1.25791   0. 
 Bq                    2.5427    1.66616  -0.28868 
 Bq                    2.5427    1.66616   0.28868 
 Bq                    2.75545   1.64059  -0.65328 
 Bq                    2.75545   1.64059   0.65328 
 Bq                    2.83138   2.07441   0. 
 Bq                    2.90873   1.96502  -0.5 
 Bq                    2.90873   1.96502   0.5 
 Bq                    3.02605   1.25791  -0.92388 
 Bq                    3.02605   1.25791   0.92388 
 Bq                    3.12005   0.84966  -0.86603 
 Bq                    3.12005   0.84966   0.86603 
 Bq                    3.12005   1.66616  -0.86603 
 Bq                    3.12005   1.66616   0.86603 
 Bq                    3.13813   2.18179  -0.2706 
 Bq                    3.13813   2.18179   0.2706 
 Bq                    3.40873   0.25791   0. 
 Bq                    3.40873   0.44141  -0.57735 
 Bq                    3.40873   0.44141   0.57735 
 Bq                    3.40873   1.25791  -1. 
 Bq                    3.40873   1.25791   1. 
 Bq                    3.40873   2.07441  -0.57735 
 Bq                    3.40873   2.07441   0.57735 
 Bq                    3.40873   2.25791   0. 
 Bq                    3.67933   0.33403  -0.2706 
 Bq                    3.67933   0.33403   0.2706 
 Bq                    3.67933   2.18179  -0.2706 
 Bq                    3.67933   2.18179   0.2706 
 Bq                    3.69741   0.84966  -0.86603 
 Bq                    3.69741   0.84966   0.86603 
 Bq                    3.69741   1.66616  -0.86603 
 Bq                    3.69741   1.66616   0.86603 
 Bq                    3.79141   1.25791  -0.92388 
 Bq                    3.79141   1.25791   0.92388 
 Bq                    3.90873   0.5508   -0.5 
 Bq                    3.90873   0.5508    0.5 
 Bq                    3.90873   1.96502  -0.5 
 Bq                    3.90873   1.96502   0.5 
 Bq                    3.98608   0.44141   0. 
 Bq                    3.98608   2.07441   0. 
 Bq                    4.06201   0.87523  -0.65328 
 Bq                    4.06201   0.87523   0.65328 
 Bq                    4.06201   1.64059  -0.65328 
 Bq                    4.06201   1.64059   0.65328 
 Bq                    4.11584   1.25791  -0.70711 
 Bq                    4.11584   1.25791   0.70711 
 Bq                    4.27476   0.84966  -0.28868 
 Bq                    4.27476   0.84966   0.28868 
 Bq                    4.27476   1.66616  -0.28868 
 Bq                    4.27476   1.66616   0.28868 
 Bq                    4.33261   1.25791  -0.38268 
 Bq                    4.33261   1.25791   0.38268 
 Bq                    4.40873   1.25791   0. 
 Bq                    0.24972   2.51472   0. 
 Bq                    0.32584   2.51472  -0.38268 
 Bq                    0.32584   2.51472   0.38268 
 Bq                    0.38369   2.10647  -0.28868 
 Bq                    0.38369   2.10647   0.28868 
 Bq                    0.38369   2.92297  -0.28868 
 Bq                    0.38369   2.92297   0.28868 
 Bq                    0.54261   2.51472  -0.70711 
 Bq                    0.54261   2.51472   0.70711 
 Bq                    0.59644   2.13204  -0.65328 
 Bq                    0.59644   2.13204   0.65328 
 Bq                    0.59644   2.8974   -0.65328 
 Bq                    0.59644   2.8974    0.65328 
 Bq                    0.67237   3.33122   0. 
 Bq                    0.74972   3.22183  -0.5 
 Bq                    0.74972   3.22183   0.5 
 Bq                    0.86704   2.51472  -0.92388 
 Bq                    0.86704   2.51472   0.92388 
 Bq                    0.96104   2.10647  -0.86603 
 Bq                    0.96104   2.10647   0.86603 
 Bq                    0.96104   2.92297  -0.86603 
 Bq                    0.96104   2.92297   0.86603 
 Bq                    0.97912   3.4386   -0.2706 
 Bq                    0.97912   3.4386    0.2706 
 Bq                    1.24972   2.51472  -1. 
 Bq                    1.24972   2.51472   1. 
 Bq                    1.24972   3.33122  -0.57735 
 Bq                    1.24972   3.33122   0.57735 
 Bq                    1.24972   3.51472   0. 
 Bq                    1.52032   3.4386   -0.2706 
 Bq                    1.52032   3.4386    0.2706 
 Bq                    1.5384    2.10647  -0.86603 
 Bq                    1.5384    2.10647   0.86603 
 Bq                    1.5384    2.92297  -0.86603 
 Bq                    1.5384    2.92297   0.86603 
 Bq                    1.6324    2.51472  -0.92388 
 Bq                    1.6324    2.51472   0.92388 
 Bq                    1.74972   3.22183  -0.5 
 Bq                    1.74972   3.22183   0.5 
 Bq                    1.82707   3.33122   0. 
 Bq                    1.903     2.13204  -0.65328 
 Bq                    1.903     2.13204   0.65328 
 Bq                    1.903     2.8974   -0.65328 
 Bq                    1.903     2.8974    0.65328 
 Bq                    1.95683   2.51472  -0.70711 
 Bq                    1.95683   2.51472   0.70711 
 Bq                    2.11575   2.10647  -0.28868 
 Bq                    2.11575   2.10647   0.28868 
 Bq                    2.11575   2.92297  -0.28868 
 Bq                    2.11575   2.92297   0.28868 
 Bq                    2.1736    2.51472  -0.38268 
 Bq                    2.1736    2.51472   0.38268 
 Bq                    2.24972   2.51472   0. 
 Bq                   -2.24972   2.51472   0. 
 Bq                   -2.1736    2.51472  -0.38268 
 Bq                   -2.1736    2.51472   0.38268 
 Bq                   -2.11575   2.10647  -0.28868 
 Bq                   -2.11575   2.10647   0.28868 
 Bq                   -2.11575   2.92297  -0.28868 
 Bq                   -2.11575   2.92297   0.28868 
 Bq                   -1.95683   2.51472  -0.70711 
 Bq                   -1.95683   2.51472   0.70711 
 Bq                   -1.903     2.13204  -0.65328 
 Bq                   -1.903     2.13204   0.65328 
 Bq                   -1.903     2.8974   -0.65328 
 Bq                   -1.903     2.8974    0.65328 
 Bq                   -1.82707   3.33122   0. 
 Bq                   -1.74972   3.22183  -0.5 
 Bq                   -1.74972   3.22183   0.5 
 Bq                   -1.6324    2.51472  -0.92388 
 Bq                   -1.6324    2.51472   0.92388 
 Bq                   -1.5384    2.10647  -0.86603 
 Bq                   -1.5384    2.10647   0.86603 
 Bq                   -1.5384    2.92297  -0.86603 
 Bq                   -1.5384    2.92297   0.86603 
 Bq                   -1.52032   3.4386   -0.2706 
 Bq                   -1.52032   3.4386    0.2706 
 Bq                   -1.24972   2.51472  -1. 
 Bq                   -1.24972   2.51472   1. 
 Bq                   -1.24972   3.33122  -0.57735 
 Bq                   -1.24972   3.33122   0.57735 
 Bq                   -1.24972   3.51472   0. 
 Bq                   -0.97912   3.4386   -0.2706 
 Bq                   -0.97912   3.4386    0.2706 
 Bq                   -0.96104   2.10647  -0.86603 
 Bq                   -0.96104   2.10647   0.86603 
 Bq                   -0.96104   2.92297  -0.86603 
 Bq                   -0.96104   2.92297   0.86603 
 Bq                   -0.86704   2.51472  -0.92388 
 Bq                   -0.86704   2.51472   0.92388 
 Bq                   -0.74972   3.22183  -0.5 
 Bq                   -0.74972   3.22183   0.5 
 Bq                   -0.67237   3.33122   0. 
 Bq                   -0.59644   2.13204  -0.65328 
 Bq                   -0.59644   2.13204   0.65328 
 Bq                   -0.59644   2.8974   -0.65328 
 Bq                   -0.59644   2.8974    0.65328 
 Bq                   -0.54261   2.51472  -0.70711 
 Bq                   -0.54261   2.51472   0.70711 
 Bq                   -0.38369   2.10647  -0.28868 
 Bq                   -0.38369   2.10647   0.28868 
 Bq                   -0.38369   2.92297  -0.28868 
 Bq                   -0.38369   2.92297   0.28868 
 Bq                   -0.32584   2.51472  -0.38268 
 Bq                   -0.32584   2.51472   0.38268 
 Bq                   -0.24972   2.51472   0. 
 Bq                   -4.40873   1.25791   0. 
 Bq                   -4.33261   1.25791  -0.38268 
 Bq                   -4.33261   1.25791   0.38268 
 Bq                   -4.27476   0.84966  -0.28868 
 Bq                   -4.27476   0.84966   0.28868 
 Bq                   -4.27476   1.66616  -0.28868 
 Bq                   -4.27476   1.66616   0.28868 
 Bq                   -4.11584   1.25791  -0.70711 
 Bq                   -4.11584   1.25791   0.70711 
 Bq                   -4.06201   0.87523  -0.65328 
 Bq                   -4.06201   0.87523   0.65328 
 Bq                   -4.06201   1.64059  -0.65328 
 Bq                   -4.06201   1.64059   0.65328 
 Bq                   -3.98608   0.44141   0. 
 Bq                   -3.98608   2.07441   0. 
 Bq                   -3.90873   0.5508   -0.5 
 Bq                   -3.90873   0.5508    0.5 
 Bq                   -3.90873   1.96502  -0.5 
 Bq                   -3.90873   1.96502   0.5 
 Bq                   -3.79141   1.25791  -0.92388 
 Bq                   -3.79141   1.25791   0.92388 
 Bq                   -3.69741   0.84966  -0.86603 
 Bq                   -3.69741   0.84966   0.86603 
 Bq                   -3.69741   1.66616  -0.86603 
 Bq                   -3.69741   1.66616   0.86603 
 Bq                   -3.67933   0.33403  -0.2706 
 Bq                   -3.67933   0.33403   0.2706 
 Bq                   -3.67933   2.18179  -0.2706 
 Bq                   -3.67933   2.18179   0.2706 
 Bq                   -3.40873   0.25791   0. 
 Bq                   -3.40873   0.44141  -0.57735 
 Bq                   -3.40873   0.44141   0.57735 
 Bq                   -3.40873   1.25791  -1. 
 Bq                   -3.40873   1.25791   1. 
 Bq                   -3.40873   2.07441  -0.57735 
 Bq                   -3.40873   2.07441   0.57735 
 Bq                   -3.40873   2.25791   0. 
 Bq                   -3.13813   2.18179  -0.2706 
 Bq                   -3.13813   2.18179   0.2706 
 Bq                   -3.12005   0.84966  -0.86603 
 Bq                   -3.12005   0.84966   0.86603 
 Bq                   -3.12005   1.66616  -0.86603 
 Bq                   -3.12005   1.66616   0.86603 
 Bq                   -3.02605   1.25791  -0.92388 
 Bq                   -3.02605   1.25791   0.92388 
 Bq                   -2.90873   1.96502  -0.5 
 Bq                   -2.90873   1.96502   0.5 
 Bq                   -2.83138   2.07441   0. 
 Bq                   -2.75545   1.64059  -0.65328 
 Bq                   -2.75545   1.64059   0.65328 
 Bq                   -2.5427    1.66616  -0.28868 
 Bq                   -2.5427    1.66616   0.28868 
 Bq                   -4.40873  -1.25791   0. 
 Bq                   -4.33261  -1.25791  -0.38268 
 Bq                   -4.33261  -1.25791   0.38268 
 Bq                   -4.27476  -1.66616  -0.28868 
 Bq                   -4.27476  -1.66616   0.28868 
 Bq                   -4.27476  -0.84966  -0.28868 
 Bq                   -4.27476  -0.84966   0.28868 
 Bq                   -4.11584  -1.25791  -0.70711 
 Bq                   -4.11584  -1.25791   0.70711 
 Bq                   -4.06201  -1.64059  -0.65328 
 Bq                   -4.06201  -1.64059   0.65328 
 Bq                   -4.06201  -0.87523  -0.65328 
 Bq                   -4.06201  -0.87523   0.65328 
 Bq                   -3.98608  -2.07441   0. 
 Bq                   -3.98608  -0.44141   0. 
 Bq                   -3.90873  -1.96502  -0.5 
 Bq                   -3.90873  -1.96502   0.5 
 Bq                   -3.90873  -0.5508   -0.5 
 Bq                   -3.90873  -0.5508    0.5 
 Bq                   -3.79141  -1.25791  -0.92388 
 Bq                   -3.79141  -1.25791   0.92388 
 Bq                   -3.69741  -1.66616  -0.86603 
 Bq                   -3.69741  -1.66616   0.86603 
 Bq                   -3.69741  -0.84966  -0.86603 
 Bq                   -3.69741  -0.84966   0.86603 
 Bq                   -3.67933  -2.18179  -0.2706 
 Bq                   -3.67933  -2.18179   0.2706 
 Bq                   -3.67933  -0.33403  -0.2706 
 Bq                   -3.67933  -0.33403   0.2706 
 Bq                   -3.40873  -2.25791   0. 
 Bq                   -3.40873  -2.07441  -0.57735 
 Bq                   -3.40873  -2.07441   0.57735 
 Bq                   -3.40873  -1.25791  -1. 
 Bq                   -3.40873  -1.25791   1. 
 Bq                   -3.40873  -0.44141  -0.57735 
 Bq                   -3.40873  -0.44141   0.57735 
 Bq                   -3.40873  -0.25791   0. 
 Bq                   -3.13813  -2.18179  -0.2706 
 Bq                   -3.13813  -2.18179   0.2706 
 Bq                   -3.12005  -1.66616  -0.86603 
 Bq                   -3.12005  -1.66616   0.86603 
 Bq                   -3.12005  -0.84966  -0.86603 
 Bq                   -3.12005  -0.84966   0.86603 
 Bq                   -3.02605  -1.25791  -0.92388 
 Bq                   -3.02605  -1.25791   0.92388 
 Bq                   -2.90873  -1.96502  -0.5 
 Bq                   -2.90873  -1.96502   0.5 
 Bq                   -2.83138  -2.07441   0. 
 Bq                   -2.75545  -1.64059  -0.65328 
 Bq                   -2.75545  -1.64059   0.65328 
 Bq                   -2.5427   -1.66616  -0.28868 
 Bq                   -2.5427   -1.66616   0.28868 
 Bq                   -2.24972  -2.51472   0. 
 Bq                   -2.1736   -2.51472  -0.38268 
 Bq                   -2.1736   -2.51472   0.38268 
 Bq                   -2.11575  -2.92297  -0.28868 
 Bq                   -2.11575  -2.92297   0.28868 
 Bq                   -2.11575  -2.10647  -0.28868 
 Bq                   -2.11575  -2.10647   0.28868 
 Bq                   -1.95683  -2.51472  -0.70711 
 Bq                   -1.95683  -2.51472   0.70711 
 Bq                   -1.903    -2.8974   -0.65328 
 Bq                   -1.903    -2.8974    0.65328 
 Bq                   -1.903    -2.13204  -0.65328 
 Bq                   -1.903    -2.13204   0.65328 
 Bq                   -1.82707  -3.33122   0. 
 Bq                   -1.74972  -3.22183  -0.5 
 Bq                   -1.74972  -3.22183   0.5 
 Bq                   -1.6324   -2.51472  -0.92388 
 Bq                   -1.6324   -2.51472   0.92388 
 Bq                   -1.5384   -2.92297  -0.86603 
 Bq                   -1.5384   -2.92297   0.86603 
 Bq                   -1.5384   -2.10647  -0.86603 
 Bq                   -1.5384   -2.10647   0.86603 
 Bq                   -1.52032  -3.4386   -0.2706 
 Bq                   -1.52032  -3.4386    0.2706 
 Bq                   -1.24972  -3.51472   0. 
 Bq                   -1.24972  -3.33122  -0.57735 
 Bq                   -1.24972  -3.33122   0.57735 
 Bq                   -1.24972  -2.51472  -1. 
 Bq                   -1.24972  -2.51472   1. 
 Bq                   -0.97912  -3.4386   -0.2706 
 Bq                   -0.97912  -3.4386    0.2706 
 Bq                   -0.96104  -2.92297  -0.86603 
 Bq                   -0.96104  -2.92297   0.86603 
 Bq                   -0.96104  -2.10647  -0.86603 
 Bq                   -0.96104  -2.10647   0.86603 
 Bq                   -0.86704  -2.51472  -0.92388 
 Bq                   -0.86704  -2.51472   0.92388 
 Bq                   -0.74972  -3.22183  -0.5 
 Bq                   -0.74972  -3.22183   0.5 
 Bq                   -0.67237  -3.33122   0. 
 Bq                   -0.59644  -2.8974   -0.65328 
 Bq                   -0.59644  -2.8974    0.65328 
 Bq                   -0.59644  -2.13204  -0.65328 
 Bq                   -0.59644  -2.13204   0.65328 
 Bq                   -0.54261  -2.51472  -0.70711 
 Bq                   -0.54261  -2.51472   0.70711 
 Bq                   -0.38369  -2.92297  -0.28868 
 Bq                   -0.38369  -2.92297   0.28868 
 Bq                   -0.38369  -2.10647  -0.28868 
 Bq                   -0.38369  -2.10647   0.28868 
 Bq                   -0.32584  -2.51472  -0.38268 
 Bq                   -0.32584  -2.51472   0.38268 
 Bq                   -0.24972  -2.51472   0. 
 Bq                    0.24972  -2.51472   0. 
 Bq                    0.32584  -2.51472  -0.38268 
 Bq                    0.32584  -2.51472   0.38268 
 Bq                    0.38369  -2.92297  -0.28868 
 Bq                    0.38369  -2.92297   0.28868 
 Bq                    0.38369  -2.10647  -0.28868 
 Bq                    0.38369  -2.10647   0.28868 
 Bq                    0.54261  -2.51472  -0.70711 
 Bq                    0.54261  -2.51472   0.70711 
 Bq                    0.59644  -2.8974   -0.65328 
 Bq                    0.59644  -2.8974    0.65328 
 Bq                    0.59644  -2.13204  -0.65328 
 Bq                    0.59644  -2.13204   0.65328 
 Bq                    0.67237  -3.33122   0. 
 Bq                    0.74972  -3.22183  -0.5 
 Bq                    0.74972  -3.22183   0.5 
 Bq                    0.86704  -2.51472  -0.92388 
 Bq                    0.86704  -2.51472   0.92388 
 Bq                    0.96104  -2.92297  -0.86603 
 Bq                    0.96104  -2.92297   0.86603 
 Bq                    0.96104  -2.10647  -0.86603 
 Bq                    0.96104  -2.10647   0.86603 
 Bq                    0.97912  -3.4386   -0.2706 
 Bq                    0.97912  -3.4386    0.2706 
 Bq                    1.24972  -3.51472   0. 
 Bq                    1.24972  -3.33122  -0.57735 
 Bq                    1.24972  -3.33122   0.57735 
 Bq                    1.24972  -2.51472  -1. 
 Bq                    1.24972  -2.51472   1. 
 Bq                    1.52032  -3.4386   -0.2706 
 Bq                    1.52032  -3.4386    0.2706 
 Bq                    1.5384   -2.92297  -0.86603 
 Bq                    1.5384   -2.92297   0.86603 
 Bq                    1.5384   -2.10647  -0.86603 
 Bq                    1.5384   -2.10647   0.86603 
 Bq                    1.6324   -2.51472  -0.92388 
 Bq                    1.6324   -2.51472   0.92388 
 Bq                    1.74972  -3.22183  -0.5 
 Bq                    1.74972  -3.22183   0.5 
 Bq                    1.82707  -3.33122   0. 
 Bq                    1.903    -2.8974   -0.65328 
 Bq                    1.903    -2.8974    0.65328 
 Bq                    1.903    -2.13204  -0.65328 
 Bq                    1.903    -2.13204   0.65328 
 Bq                    1.95683  -2.51472  -0.70711 
 Bq                    1.95683  -2.51472   0.70711 
 Bq                    2.11575  -2.92297  -0.28868 
 Bq                    2.11575  -2.92297   0.28868 
 Bq                    2.11575  -2.10647  -0.28868 
 Bq                    2.11575  -2.10647   0.28868 
 Bq                    2.1736   -2.51472  -0.38268 
 Bq                    2.1736   -2.51472   0.38268 
 Bq                    2.24972  -2.51472   0. 
 Bq                    0.52694   0.       -0.70711 
 Bq                    0.52694   0.        0.70711 
 Bq                    0.85137   0.       -0.92388 
 Bq                    0.85137   0.        0.92388 
 Bq                    0.94537  -0.40825  -0.86603 
 Bq                    0.94537  -0.40825   0.86603 
 Bq                    0.94537   0.40825  -0.86603 
 Bq                    0.94537   0.40825   0.86603 
 Bq                    1.23405   0.       -1. 
 Bq                    1.23405   0.        1. 
 Bq                    1.52273  -0.40825  -0.86603 
 Bq                    1.52273  -0.40825   0.86603 
 Bq                    1.52273   0.40825  -0.86603 
 Bq                    1.52273   0.40825   0.86603 
 Bq                    1.61673   0.       -0.92388 
 Bq                    1.61673   0.        0.92388 
 Bq                    1.94116   0.       -0.70711 
 Bq                    1.94116   0.        0.70711 
 Bq                   -1.94116   0.       -0.70711 
 Bq                   -1.94116   0.        0.70711 
 Bq                   -1.61673   0.       -0.92388 
 Bq                   -1.61673   0.        0.92388 
 Bq                   -1.52273  -0.40825  -0.86603 
 Bq                   -1.52273  -0.40825   0.86603 
 Bq                   -1.52273   0.40825  -0.86603 
 Bq                   -1.52273   0.40825   0.86603 
 Bq                   -1.23405   0.       -1. 
 Bq                   -1.23405   0.        1. 
 Bq                   -0.94537  -0.40825  -0.86603 
 Bq                   -0.94537  -0.40825   0.86603 
 Bq                   -0.94537   0.40825  -0.86603 
 Bq                   -0.94537   0.40825   0.86603 
 Bq                   -0.85137   0.       -0.92388 
 Bq                   -0.85137   0.        0.92388 
 Bq                   -0.52694   0.       -0.70711 
 Bq                   -0.52694   0.        0.70711 
 
 ITRead=  0  0  0  0  0  0  0  0  0  0  0  0  0  0  0  0  0  0  0  0
 ITRead=  0  0  0  0  0  0  0  0  0  0  0  0  0  0  0  0  0  0  0  0
 ITRead=  0  0  0  0  0  0  0  0  0  0  0  0  0  0  0  0  0  0  0  0
 ITRead=  0  0  0  0  0  0  0  0  0  0  0  0  0  0  0  0  0  0  0  0
 ITRead=  0  0  0  0  0  0  0  0  0  0  0  0  0  0  0  0  0  0  0  0
 ITRead=  0  0  0  0  0  0  0  0  0  0  0  0  0  0  0  0  0  0  0  0
 ITRead=  0  0  0  0  0  0  0  0  0  0  0  0  0  0  0  0  0  0  0  0
 ITRead=  0  0  0  0  0  0  0  0  0  0  0  0  0  0  0  0  0  0  0  0
 ITRead=  0  0  0  0  0  0  0  0  0  0  0  0  0  0  0  0  0  0  0  0
 ITRead=  0  0  0  0  0  0  0  0  0  0  0  0  0  0  0  0  0  0  0  0
 ITRead=  0  0  0  0  0  0  0  0  0  0  0  0  0  0  0  0  0  0  0  0
 ITRead=  0  0  0  0  0  0  0  0  0  0  0  0  0  0  0  0  0  0  0  0
 ITRead=  0  0  0  0  0  0  0  0  0  0  0  0  0  0  0  0  0  0  0  0
 ITRead=  0  0  0  0  0  0  0  0  0  0  0  0  0  0  0  0  0  0  0  0
 ITRead=  0  0  0  0  0  0  0  0  0  0  0  0  0  0  0  0  0  0  0  0
 ITRead=  0  0  0  0  0  0  0  0  0  0  0  0  0  0  0  0  0  0  0  0
 ITRead=  0  0  0  0  0  0  0  0  0  0  0  0  0  0  0  0  0  0  0  0
 ITRead=  0  0  0  0  0  0  0  0  0  0  0  0  0  0  0  0  0  0  0  0
 ITRead=  0  0  0  0  0  0  0  0  0  0  0  0  0  0  0  0  0  0  0  0
 ITRead=  0  0  0  0  0  0  0  0  0  0  0  0  0  0  0  0  0  0  0  0
 ITRead=  0  0  0  0  0  0  0  0  0  0  0  0  0  0  0  0  0  0  0  0
 ITRead=  0  0  0  0  0  0  0  0  0  0  0  0  0  0  0  0  0  0  0  0
 ITRead=  0  0  0  0  0  0  0  0  0  0  0  0  0  0  0  0  0  0  0  0
 ITRead=  0  0  0  0  0  0  0  0  0  0  0  0  0  0  0  0  0  0  0  0
 ITRead=  0  0  0  0  0  0  0  0  0  0  0  0  0  0  0  0  0  0  0  0
 ITRead=  0  0  0  0  0  0  0  0  0  0  0  0  0  0  0  0  0  0  0  0
 ITRead=  0  0  0  0  0  0  0  0  0  0  0  0  0  0  0  0  0  0  0  0
 ITRead=  0  0  0  0  0  0  0  0  0  0  0  0  0  0  0  0  0  0  0  0
 ITRead=  0  0  0  0  0  0  0  0  0  0  0  0  0  0  0  0  0  0  0  0
 ITRead=  0  0  0  0  0  0  0  0  0  0  0  0  0  0  0  0  0  0  0  0
 ITRead=  0  0  0  0  0  0  0  0  0  0  0  0  0  0  0  0  0  0  0  0
 ITRead=  0  0  0  0  0  0  0  0  0  0  0  0  0  0  0  0  0  0  0  0
 ITRead=  0  0  0  0  0  0  0  0  0  0  0  0  0  0  0  0  0  0  0  0
 ITRead=  0  0  0  0  0  0  0  0  0  0  0  0  0  0  0  0  0  0  0  0
 ITRead=  0  0  0  0  0  0  0  0  0  0  0  0  0  0  0  0  0  0  0  0
 ITRead=  0  0  0  0  0  0  0  0  0  0  0  0  0  0  0  0  0  0  0  0
 ITRead=  0  0  0  0  0  0  0  0
 MicOpt= -1 -1 -1 -1 -1 -1 -1 -1 -1 -1 -1 -1 -1 -1 -1 -1 -1 -1 -1 -1
 MicOpt= -1 -1 -1 -1 -1 -1 -1 -1 -1 -1 -1 -1 -1 -1 -1 -1 -1 -1 -1 -1
 MicOpt= -1 -1 -1 -1 -1 -1 -1 -1 -1 -1 -1 -1 -1 -1 -1 -1 -1 -1 -1 -1
 MicOpt= -1 -1 -1 -1 -1 -1 -1 -1 -1 -1 -1 -1 -1 -1 -1 -1 -1 -1 -1 -1
 MicOpt= -1 -1 -1 -1 -1 -1 -1 -1 -1 -1 -1 -1 -1 -1 -1 -1 -1 -1 -1 -1
 MicOpt= -1 -1 -1 -1 -1 -1 -1 -1 -1 -1 -1 -1 -1 -1 -1 -1 -1 -1 -1 -1
 MicOpt= -1 -1 -1 -1 -1 -1 -1 -1 -1 -1 -1 -1 -1 -1 -1 -1 -1 -1 -1 -1
 MicOpt= -1 -1 -1 -1 -1 -1 -1 -1 -1 -1 -1 -1 -1 -1 -1 -1 -1 -1 -1 -1
 MicOpt= -1 -1 -1 -1 -1 -1 -1 -1 -1 -1 -1 -1 -1 -1 -1 -1 -1 -1 -1 -1
 MicOpt= -1 -1 -1 -1 -1 -1 -1 -1 -1 -1 -1 -1 -1 -1 -1 -1 -1 -1 -1 -1
 MicOpt= -1 -1 -1 -1 -1 -1 -1 -1 -1 -1 -1 -1 -1 -1 -1 -1 -1 -1 -1 -1
 MicOpt= -1 -1 -1 -1 -1 -1 -1 -1 -1 -1 -1 -1 -1 -1 -1 -1 -1 -1 -1 -1
 MicOpt= -1 -1 -1 -1 -1 -1 -1 -1 -1 -1 -1 -1 -1 -1 -1 -1 -1 -1 -1 -1
 MicOpt= -1 -1 -1 -1 -1 -1 -1 -1 -1 -1 -1 -1 -1 -1 -1 -1 -1 -1 -1 -1
 MicOpt= -1 -1 -1 -1 -1 -1 -1 -1 -1 -1 -1 -1 -1 -1 -1 -1 -1 -1 -1 -1
 MicOpt= -1 -1 -1 -1 -1 -1 -1 -1 -1 -1 -1 -1 -1 -1 -1 -1 -1 -1 -1 -1
 MicOpt= -1 -1 -1 -1 -1 -1 -1 -1 -1 -1 -1 -1 -1 -1 -1 -1 -1 -1 -1 -1
 MicOpt= -1 -1 -1 -1 -1 -1 -1 -1 -1 -1 -1 -1 -1 -1 -1 -1 -1 -1 -1 -1
 MicOpt= -1 -1 -1 -1 -1 -1 -1 -1 -1 -1 -1 -1 -1 -1 -1 -1 -1 -1 -1 -1
 MicOpt= -1 -1 -1 -1 -1 -1 -1 -1 -1 -1 -1 -1 -1 -1 -1 -1 -1 -1 -1 -1
 MicOpt= -1 -1 -1 -1 -1 -1 -1 -1 -1 -1 -1 -1 -1 -1 -1 -1 -1 -1 -1 -1
 MicOpt= -1 -1 -1 -1 -1 -1 -1 -1 -1 -1 -1 -1 -1 -1 -1 -1 -1 -1 -1 -1
 MicOpt= -1 -1 -1 -1 -1 -1 -1 -1 -1 -1 -1 -1 -1 -1 -1 -1 -1 -1 -1 -1
 MicOpt= -1 -1 -1 -1 -1 -1 -1 -1 -1 -1 -1 -1 -1 -1 -1 -1 -1 -1 -1 -1
 MicOpt= -1 -1 -1 -1 -1 -1 -1 -1 -1 -1 -1 -1 -1 -1 -1 -1 -1 -1 -1 -1
 MicOpt= -1 -1 -1 -1 -1 -1 -1 -1 -1 -1 -1 -1 -1 -1 -1 -1 -1 -1 -1 -1
 MicOpt= -1 -1 -1 -1 -1 -1 -1 -1 -1 -1 -1 -1 -1 -1 -1 -1 -1 -1 -1 -1
 MicOpt= -1 -1 -1 -1 -1 -1 -1 -1 -1 -1 -1 -1 -1 -1 -1 -1 -1 -1 -1 -1
 MicOpt= -1 -1 -1 -1 -1 -1 -1 -1 -1 -1 -1 -1 -1 -1 -1 -1 -1 -1 -1 -1
 MicOpt= -1 -1 -1 -1 -1 -1 -1 -1 -1 -1 -1 -1 -1 -1 -1 -1 -1 -1 -1 -1
 MicOpt= -1 -1 -1 -1 -1 -1 -1 -1 -1 -1 -1 -1 -1 -1 -1 -1 -1 -1 -1 -1
 MicOpt= -1 -1 -1 -1 -1 -1 -1 -1 -1 -1 -1 -1 -1 -1 -1 -1 -1 -1 -1 -1
 MicOpt= -1 -1 -1 -1 -1 -1 -1 -1 -1 -1 -1 -1 -1 -1 -1 -1 -1 -1 -1 -1
 MicOpt= -1 -1 -1 -1 -1 -1 -1 -1 -1 -1 -1 -1 -1 -1 -1 -1 -1 -1 -1 -1
 MicOpt= -1 -1 -1 -1 -1 -1 -1 -1 -1 -1 -1 -1 -1 -1 -1 -1 -1 -1 -1 -1
 MicOpt= -1 -1 -1 -1 -1 -1 -1 -1 -1 -1 -1 -1 -1 -1 -1 -1 -1 -1 -1 -1
 MicOpt= -1 -1 -1 -1 -1 -1 -1 -1
 NAtoms=    728 NQM=      728 NQMF=       0 NMMI=      0 NMMIF=      0
                NMic=       0 NMicF=      0.
                    Isotopes and Nuclear Properties:
 (Nuclear quadrupole moments (NQMom) in fm**2, nuclear magnetic moments (NMagM)
  in nuclear magnetons)

  Atom         1           2           3           4           5           6           7           8           9          10
 IAtWgt=          12          12          12          12          12          12          12          12          12          12
 AtmWgt=  12.0000000  12.0000000  12.0000000  12.0000000  12.0000000  12.0000000  12.0000000  12.0000000  12.0000000  12.0000000
 NucSpn=           0           0           0           0           0           0           0           0           0           0
 AtZEff=  -0.0000000  -0.0000000  -0.0000000  -0.0000000  -0.0000000  -0.0000000  -0.0000000  -0.0000000  -0.0000000  -0.0000000
 NQMom=    0.0000000   0.0000000   0.0000000   0.0000000   0.0000000   0.0000000   0.0000000   0.0000000   0.0000000   0.0000000
 NMagM=    0.0000000   0.0000000   0.0000000   0.0000000   0.0000000   0.0000000   0.0000000   0.0000000   0.0000000   0.0000000
 AtZNuc=   6.0000000   6.0000000   6.0000000   6.0000000   6.0000000   6.0000000   6.0000000   6.0000000   6.0000000   6.0000000

  Atom        11          12          13          14          15          16          17          18          19          20
 IAtWgt=           1           1           1           1           1           1           1           1           0           0
 AtmWgt=   1.0078250   1.0078250   1.0078250   1.0078250   1.0078250   1.0078250   1.0078250   1.0078250   0.0000000   0.0000000
 NucSpn=           1           1           1           1           1           1           1           1           0           0
 AtZEff=  -0.0000000  -0.0000000  -0.0000000  -0.0000000  -0.0000000  -0.0000000  -0.0000000  -0.0000000  -0.0000000  -0.0000000
 NQMom=    0.0000000   0.0000000   0.0000000   0.0000000   0.0000000   0.0000000   0.0000000   0.0000000   0.0000000   0.0000000
 NMagM=    2.7928460   2.7928460   2.7928460   2.7928460   2.7928460   2.7928460   2.7928460   2.7928460   0.0000000   0.0000000
 AtZNuc=   1.0000000   1.0000000   1.0000000   1.0000000   1.0000000   1.0000000   1.0000000   1.0000000   0.0000000   0.0000000

  Atom        21          22          23          24          25          26          27          28          29          30
 IAtWgt=           0           0           0           0           0           0           0           0           0           0
 AtmWgt=   0.0000000   0.0000000   0.0000000   0.0000000   0.0000000   0.0000000   0.0000000   0.0000000   0.0000000   0.0000000
 NucSpn=           0           0           0           0           0           0           0           0           0           0
 AtZEff=  -0.0000000  -0.0000000  -0.0000000  -0.0000000  -0.0000000  -0.0000000  -0.0000000  -0.0000000  -0.0000000  -0.0000000
 NQMom=    0.0000000   0.0000000   0.0000000   0.0000000   0.0000000   0.0000000   0.0000000   0.0000000   0.0000000   0.0000000
 NMagM=    0.0000000   0.0000000   0.0000000   0.0000000   0.0000000   0.0000000   0.0000000   0.0000000   0.0000000   0.0000000
 AtZNuc=   0.0000000   0.0000000   0.0000000   0.0000000   0.0000000   0.0000000   0.0000000   0.0000000   0.0000000   0.0000000

  Atom        31          32          33          34          35          36          37          38          39          40
 IAtWgt=           0           0           0           0           0           0           0           0           0           0
 AtmWgt=   0.0000000   0.0000000   0.0000000   0.0000000   0.0000000   0.0000000   0.0000000   0.0000000   0.0000000   0.0000000
 NucSpn=           0           0           0           0           0           0           0           0           0           0
 AtZEff=  -0.0000000  -0.0000000  -0.0000000  -0.0000000  -0.0000000  -0.0000000  -0.0000000  -0.0000000  -0.0000000  -0.0000000
 NQMom=    0.0000000   0.0000000   0.0000000   0.0000000   0.0000000   0.0000000   0.0000000   0.0000000   0.0000000   0.0000000
 NMagM=    0.0000000   0.0000000   0.0000000   0.0000000   0.0000000   0.0000000   0.0000000   0.0000000   0.0000000   0.0000000
 AtZNuc=   0.0000000   0.0000000   0.0000000   0.0000000   0.0000000   0.0000000   0.0000000   0.0000000   0.0000000   0.0000000

  Atom        41          42          43          44          45          46          47          48          49          50
 IAtWgt=           0           0           0           0           0           0           0           0           0           0
 AtmWgt=   0.0000000   0.0000000   0.0000000   0.0000000   0.0000000   0.0000000   0.0000000   0.0000000   0.0000000   0.0000000
 NucSpn=           0           0           0           0           0           0           0           0           0           0
 AtZEff=  -0.0000000  -0.0000000  -0.0000000  -0.0000000  -0.0000000  -0.0000000  -0.0000000  -0.0000000  -0.0000000  -0.0000000
 NQMom=    0.0000000   0.0000000   0.0000000   0.0000000   0.0000000   0.0000000   0.0000000   0.0000000   0.0000000   0.0000000
 NMagM=    0.0000000   0.0000000   0.0000000   0.0000000   0.0000000   0.0000000   0.0000000   0.0000000   0.0000000   0.0000000
 AtZNuc=   0.0000000   0.0000000   0.0000000   0.0000000   0.0000000   0.0000000   0.0000000   0.0000000   0.0000000   0.0000000

  Atom        51          52          53          54          55          56          57          58          59          60
 IAtWgt=           0           0           0           0           0           0           0           0           0           0
 AtmWgt=   0.0000000   0.0000000   0.0000000   0.0000000   0.0000000   0.0000000   0.0000000   0.0000000   0.0000000   0.0000000
 NucSpn=           0           0           0           0           0           0           0           0           0           0
 AtZEff=  -0.0000000  -0.0000000  -0.0000000  -0.0000000  -0.0000000  -0.0000000  -0.0000000  -0.0000000  -0.0000000  -0.0000000
 NQMom=    0.0000000   0.0000000   0.0000000   0.0000000   0.0000000   0.0000000   0.0000000   0.0000000   0.0000000   0.0000000
 NMagM=    0.0000000   0.0000000   0.0000000   0.0000000   0.0000000   0.0000000   0.0000000   0.0000000   0.0000000   0.0000000
 AtZNuc=   0.0000000   0.0000000   0.0000000   0.0000000   0.0000000   0.0000000   0.0000000   0.0000000   0.0000000   0.0000000

  Atom        61          62          63          64          65          66          67          68          69          70
 IAtWgt=           0           0           0           0           0           0           0           0           0           0
 AtmWgt=   0.0000000   0.0000000   0.0000000   0.0000000   0.0000000   0.0000000   0.0000000   0.0000000   0.0000000   0.0000000
 NucSpn=           0           0           0           0           0           0           0           0           0           0
 AtZEff=  -0.0000000  -0.0000000  -0.0000000  -0.0000000  -0.0000000  -0.0000000  -0.0000000  -0.0000000  -0.0000000  -0.0000000
 NQMom=    0.0000000   0.0000000   0.0000000   0.0000000   0.0000000   0.0000000   0.0000000   0.0000000   0.0000000   0.0000000
 NMagM=    0.0000000   0.0000000   0.0000000   0.0000000   0.0000000   0.0000000   0.0000000   0.0000000   0.0000000   0.0000000
 AtZNuc=   0.0000000   0.0000000   0.0000000   0.0000000   0.0000000   0.0000000   0.0000000   0.0000000   0.0000000   0.0000000

  Atom        71          72          73          74          75          76          77          78          79          80
 IAtWgt=           0           0           0           0           0           0           0           0           0           0
 AtmWgt=   0.0000000   0.0000000   0.0000000   0.0000000   0.0000000   0.0000000   0.0000000   0.0000000   0.0000000   0.0000000
 NucSpn=           0           0           0           0           0           0           0           0           0           0
 AtZEff=  -0.0000000  -0.0000000  -0.0000000  -0.0000000  -0.0000000  -0.0000000  -0.0000000  -0.0000000  -0.0000000  -0.0000000
 NQMom=    0.0000000   0.0000000   0.0000000   0.0000000   0.0000000   0.0000000   0.0000000   0.0000000   0.0000000   0.0000000
 NMagM=    0.0000000   0.0000000   0.0000000   0.0000000   0.0000000   0.0000000   0.0000000   0.0000000   0.0000000   0.0000000
 AtZNuc=   0.0000000   0.0000000   0.0000000   0.0000000   0.0000000   0.0000000   0.0000000   0.0000000   0.0000000   0.0000000

  Atom        81          82          83          84          85          86          87          88          89          90
 IAtWgt=           0           0           0           0           0           0           0           0           0           0
 AtmWgt=   0.0000000   0.0000000   0.0000000   0.0000000   0.0000000   0.0000000   0.0000000   0.0000000   0.0000000   0.0000000
 NucSpn=           0           0           0           0           0           0           0           0           0           0
 AtZEff=  -0.0000000  -0.0000000  -0.0000000  -0.0000000  -0.0000000  -0.0000000  -0.0000000  -0.0000000  -0.0000000  -0.0000000
 NQMom=    0.0000000   0.0000000   0.0000000   0.0000000   0.0000000   0.0000000   0.0000000   0.0000000   0.0000000   0.0000000
 NMagM=    0.0000000   0.0000000   0.0000000   0.0000000   0.0000000   0.0000000   0.0000000   0.0000000   0.0000000   0.0000000
 AtZNuc=   0.0000000   0.0000000   0.0000000   0.0000000   0.0000000   0.0000000   0.0000000   0.0000000   0.0000000   0.0000000

  Atom        91          92          93          94          95          96          97          98          99         100
 IAtWgt=           0           0           0           0           0           0           0           0           0           0
 AtmWgt=   0.0000000   0.0000000   0.0000000   0.0000000   0.0000000   0.0000000   0.0000000   0.0000000   0.0000000   0.0000000
 NucSpn=           0           0           0           0           0           0           0           0           0           0
 AtZEff=  -0.0000000  -0.0000000  -0.0000000  -0.0000000  -0.0000000  -0.0000000  -0.0000000  -0.0000000  -0.0000000  -0.0000000
 NQMom=    0.0000000   0.0000000   0.0000000   0.0000000   0.0000000   0.0000000   0.0000000   0.0000000   0.0000000   0.0000000
 NMagM=    0.0000000   0.0000000   0.0000000   0.0000000   0.0000000   0.0000000   0.0000000   0.0000000   0.0000000   0.0000000
 AtZNuc=   0.0000000   0.0000000   0.0000000   0.0000000   0.0000000   0.0000000   0.0000000   0.0000000   0.0000000   0.0000000

  Atom       101         102         103         104         105         106         107         108         109         110
 IAtWgt=           0           0           0           0           0           0           0           0           0           0
 AtmWgt=   0.0000000   0.0000000   0.0000000   0.0000000   0.0000000   0.0000000   0.0000000   0.0000000   0.0000000   0.0000000
 NucSpn=           0           0           0           0           0           0           0           0           0           0
 AtZEff=  -0.0000000  -0.0000000  -0.0000000  -0.0000000  -0.0000000  -0.0000000  -0.0000000  -0.0000000  -0.0000000  -0.0000000
 NQMom=    0.0000000   0.0000000   0.0000000   0.0000000   0.0000000   0.0000000   0.0000000   0.0000000   0.0000000   0.0000000
 NMagM=    0.0000000   0.0000000   0.0000000   0.0000000   0.0000000   0.0000000   0.0000000   0.0000000   0.0000000   0.0000000
 AtZNuc=   0.0000000   0.0000000   0.0000000   0.0000000   0.0000000   0.0000000   0.0000000   0.0000000   0.0000000   0.0000000

  Atom       111         112         113         114         115         116         117         118         119         120
 IAtWgt=           0           0           0           0           0           0           0           0           0           0
 AtmWgt=   0.0000000   0.0000000   0.0000000   0.0000000   0.0000000   0.0000000   0.0000000   0.0000000   0.0000000   0.0000000
 NucSpn=           0           0           0           0           0           0           0           0           0           0
 AtZEff=  -0.0000000  -0.0000000  -0.0000000  -0.0000000  -0.0000000  -0.0000000  -0.0000000  -0.0000000  -0.0000000  -0.0000000
 NQMom=    0.0000000   0.0000000   0.0000000   0.0000000   0.0000000   0.0000000   0.0000000   0.0000000   0.0000000   0.0000000
 NMagM=    0.0000000   0.0000000   0.0000000   0.0000000   0.0000000   0.0000000   0.0000000   0.0000000   0.0000000   0.0000000
 AtZNuc=   0.0000000   0.0000000   0.0000000   0.0000000   0.0000000   0.0000000   0.0000000   0.0000000   0.0000000   0.0000000

  Atom       121         122         123         124         125         126         127         128         129         130
 IAtWgt=           0           0           0           0           0           0           0           0           0           0
 AtmWgt=   0.0000000   0.0000000   0.0000000   0.0000000   0.0000000   0.0000000   0.0000000   0.0000000   0.0000000   0.0000000
 NucSpn=           0           0           0           0           0           0           0           0           0           0
 AtZEff=  -0.0000000  -0.0000000  -0.0000000  -0.0000000  -0.0000000  -0.0000000  -0.0000000  -0.0000000  -0.0000000  -0.0000000
 NQMom=    0.0000000   0.0000000   0.0000000   0.0000000   0.0000000   0.0000000   0.0000000   0.0000000   0.0000000   0.0000000
 NMagM=    0.0000000   0.0000000   0.0000000   0.0000000   0.0000000   0.0000000   0.0000000   0.0000000   0.0000000   0.0000000
 AtZNuc=   0.0000000   0.0000000   0.0000000   0.0000000   0.0000000   0.0000000   0.0000000   0.0000000   0.0000000   0.0000000

  Atom       131         132         133         134         135         136         137         138         139         140
 IAtWgt=           0           0           0           0           0           0           0           0           0           0
 AtmWgt=   0.0000000   0.0000000   0.0000000   0.0000000   0.0000000   0.0000000   0.0000000   0.0000000   0.0000000   0.0000000
 NucSpn=           0           0           0           0           0           0           0           0           0           0
 AtZEff=  -0.0000000  -0.0000000  -0.0000000  -0.0000000  -0.0000000  -0.0000000  -0.0000000  -0.0000000  -0.0000000  -0.0000000
 NQMom=    0.0000000   0.0000000   0.0000000   0.0000000   0.0000000   0.0000000   0.0000000   0.0000000   0.0000000   0.0000000
 NMagM=    0.0000000   0.0000000   0.0000000   0.0000000   0.0000000   0.0000000   0.0000000   0.0000000   0.0000000   0.0000000
 AtZNuc=   0.0000000   0.0000000   0.0000000   0.0000000   0.0000000   0.0000000   0.0000000   0.0000000   0.0000000   0.0000000

  Atom       141         142         143         144         145         146         147         148         149         150
 IAtWgt=           0           0           0           0           0           0           0           0           0           0
 AtmWgt=   0.0000000   0.0000000   0.0000000   0.0000000   0.0000000   0.0000000   0.0000000   0.0000000   0.0000000   0.0000000
 NucSpn=           0           0           0           0           0           0           0           0           0           0
 AtZEff=  -0.0000000  -0.0000000  -0.0000000  -0.0000000  -0.0000000  -0.0000000  -0.0000000  -0.0000000  -0.0000000  -0.0000000
 NQMom=    0.0000000   0.0000000   0.0000000   0.0000000   0.0000000   0.0000000   0.0000000   0.0000000   0.0000000   0.0000000
 NMagM=    0.0000000   0.0000000   0.0000000   0.0000000   0.0000000   0.0000000   0.0000000   0.0000000   0.0000000   0.0000000
 AtZNuc=   0.0000000   0.0000000   0.0000000   0.0000000   0.0000000   0.0000000   0.0000000   0.0000000   0.0000000   0.0000000

  Atom       151         152         153         154         155         156         157         158         159         160
 IAtWgt=           0           0           0           0           0           0           0           0           0           0
 AtmWgt=   0.0000000   0.0000000   0.0000000   0.0000000   0.0000000   0.0000000   0.0000000   0.0000000   0.0000000   0.0000000
 NucSpn=           0           0           0           0           0           0           0           0           0           0
 AtZEff=  -0.0000000  -0.0000000  -0.0000000  -0.0000000  -0.0000000  -0.0000000  -0.0000000  -0.0000000  -0.0000000  -0.0000000
 NQMom=    0.0000000   0.0000000   0.0000000   0.0000000   0.0000000   0.0000000   0.0000000   0.0000000   0.0000000   0.0000000
 NMagM=    0.0000000   0.0000000   0.0000000   0.0000000   0.0000000   0.0000000   0.0000000   0.0000000   0.0000000   0.0000000
 AtZNuc=   0.0000000   0.0000000   0.0000000   0.0000000   0.0000000   0.0000000   0.0000000   0.0000000   0.0000000   0.0000000

  Atom       161         162         163         164         165         166         167         168         169         170
 IAtWgt=           0           0           0           0           0           0           0           0           0           0
 AtmWgt=   0.0000000   0.0000000   0.0000000   0.0000000   0.0000000   0.0000000   0.0000000   0.0000000   0.0000000   0.0000000
 NucSpn=           0           0           0           0           0           0           0           0           0           0
 AtZEff=  -0.0000000  -0.0000000  -0.0000000  -0.0000000  -0.0000000  -0.0000000  -0.0000000  -0.0000000  -0.0000000  -0.0000000
 NQMom=    0.0000000   0.0000000   0.0000000   0.0000000   0.0000000   0.0000000   0.0000000   0.0000000   0.0000000   0.0000000
 NMagM=    0.0000000   0.0000000   0.0000000   0.0000000   0.0000000   0.0000000   0.0000000   0.0000000   0.0000000   0.0000000
 AtZNuc=   0.0000000   0.0000000   0.0000000   0.0000000   0.0000000   0.0000000   0.0000000   0.0000000   0.0000000   0.0000000

  Atom       171         172         173         174         175         176         177         178         179         180
 IAtWgt=           0           0           0           0           0           0           0           0           0           0
 AtmWgt=   0.0000000   0.0000000   0.0000000   0.0000000   0.0000000   0.0000000   0.0000000   0.0000000   0.0000000   0.0000000
 NucSpn=           0           0           0           0           0           0           0           0           0           0
 AtZEff=  -0.0000000  -0.0000000  -0.0000000  -0.0000000  -0.0000000  -0.0000000  -0.0000000  -0.0000000  -0.0000000  -0.0000000
 NQMom=    0.0000000   0.0000000   0.0000000   0.0000000   0.0000000   0.0000000   0.0000000   0.0000000   0.0000000   0.0000000
 NMagM=    0.0000000   0.0000000   0.0000000   0.0000000   0.0000000   0.0000000   0.0000000   0.0000000   0.0000000   0.0000000
 AtZNuc=   0.0000000   0.0000000   0.0000000   0.0000000   0.0000000   0.0000000   0.0000000   0.0000000   0.0000000   0.0000000

  Atom       181         182         183         184         185         186         187         188         189         190
 IAtWgt=           0           0           0           0           0           0           0           0           0           0
 AtmWgt=   0.0000000   0.0000000   0.0000000   0.0000000   0.0000000   0.0000000   0.0000000   0.0000000   0.0000000   0.0000000
 NucSpn=           0           0           0           0           0           0           0           0           0           0
 AtZEff=  -0.0000000  -0.0000000  -0.0000000  -0.0000000  -0.0000000  -0.0000000  -0.0000000  -0.0000000  -0.0000000  -0.0000000
 NQMom=    0.0000000   0.0000000   0.0000000   0.0000000   0.0000000   0.0000000   0.0000000   0.0000000   0.0000000   0.0000000
 NMagM=    0.0000000   0.0000000   0.0000000   0.0000000   0.0000000   0.0000000   0.0000000   0.0000000   0.0000000   0.0000000
 AtZNuc=   0.0000000   0.0000000   0.0000000   0.0000000   0.0000000   0.0000000   0.0000000   0.0000000   0.0000000   0.0000000

  Atom       191         192         193         194         195         196         197         198         199         200
 IAtWgt=           0           0           0           0           0           0           0           0           0           0
 AtmWgt=   0.0000000   0.0000000   0.0000000   0.0000000   0.0000000   0.0000000   0.0000000   0.0000000   0.0000000   0.0000000
 NucSpn=           0           0           0           0           0           0           0           0           0           0
 AtZEff=  -0.0000000  -0.0000000  -0.0000000  -0.0000000  -0.0000000  -0.0000000  -0.0000000  -0.0000000  -0.0000000  -0.0000000
 NQMom=    0.0000000   0.0000000   0.0000000   0.0000000   0.0000000   0.0000000   0.0000000   0.0000000   0.0000000   0.0000000
 NMagM=    0.0000000   0.0000000   0.0000000   0.0000000   0.0000000   0.0000000   0.0000000   0.0000000   0.0000000   0.0000000
 AtZNuc=   0.0000000   0.0000000   0.0000000   0.0000000   0.0000000   0.0000000   0.0000000   0.0000000   0.0000000   0.0000000

  Atom       201         202         203         204         205         206         207         208         209         210
 IAtWgt=           0           0           0           0           0           0           0           0           0           0
 AtmWgt=   0.0000000   0.0000000   0.0000000   0.0000000   0.0000000   0.0000000   0.0000000   0.0000000   0.0000000   0.0000000
 NucSpn=           0           0           0           0           0           0           0           0           0           0
 AtZEff=  -0.0000000  -0.0000000  -0.0000000  -0.0000000  -0.0000000  -0.0000000  -0.0000000  -0.0000000  -0.0000000  -0.0000000
 NQMom=    0.0000000   0.0000000   0.0000000   0.0000000   0.0000000   0.0000000   0.0000000   0.0000000   0.0000000   0.0000000
 NMagM=    0.0000000   0.0000000   0.0000000   0.0000000   0.0000000   0.0000000   0.0000000   0.0000000   0.0000000   0.0000000
 AtZNuc=   0.0000000   0.0000000   0.0000000   0.0000000   0.0000000   0.0000000   0.0000000   0.0000000   0.0000000   0.0000000

  Atom       211         212         213         214         215         216         217         218         219         220
 IAtWgt=           0           0           0           0           0           0           0           0           0           0
 AtmWgt=   0.0000000   0.0000000   0.0000000   0.0000000   0.0000000   0.0000000   0.0000000   0.0000000   0.0000000   0.0000000
 NucSpn=           0           0           0           0           0           0           0           0           0           0
 AtZEff=  -0.0000000  -0.0000000  -0.0000000  -0.0000000  -0.0000000  -0.0000000  -0.0000000  -0.0000000  -0.0000000  -0.0000000
 NQMom=    0.0000000   0.0000000   0.0000000   0.0000000   0.0000000   0.0000000   0.0000000   0.0000000   0.0000000   0.0000000
 NMagM=    0.0000000   0.0000000   0.0000000   0.0000000   0.0000000   0.0000000   0.0000000   0.0000000   0.0000000   0.0000000
 AtZNuc=   0.0000000   0.0000000   0.0000000   0.0000000   0.0000000   0.0000000   0.0000000   0.0000000   0.0000000   0.0000000

  Atom       221         222         223         224         225         226         227         228         229         230
 IAtWgt=           0           0           0           0           0           0           0           0           0           0
 AtmWgt=   0.0000000   0.0000000   0.0000000   0.0000000   0.0000000   0.0000000   0.0000000   0.0000000   0.0000000   0.0000000
 NucSpn=           0           0           0           0           0           0           0           0           0           0
 AtZEff=  -0.0000000  -0.0000000  -0.0000000  -0.0000000  -0.0000000  -0.0000000  -0.0000000  -0.0000000  -0.0000000  -0.0000000
 NQMom=    0.0000000   0.0000000   0.0000000   0.0000000   0.0000000   0.0000000   0.0000000   0.0000000   0.0000000   0.0000000
 NMagM=    0.0000000   0.0000000   0.0000000   0.0000000   0.0000000   0.0000000   0.0000000   0.0000000   0.0000000   0.0000000
 AtZNuc=   0.0000000   0.0000000   0.0000000   0.0000000   0.0000000   0.0000000   0.0000000   0.0000000   0.0000000   0.0000000

  Atom       231         232         233         234         235         236         237         238         239         240
 IAtWgt=           0           0           0           0           0           0           0           0           0           0
 AtmWgt=   0.0000000   0.0000000   0.0000000   0.0000000   0.0000000   0.0000000   0.0000000   0.0000000   0.0000000   0.0000000
 NucSpn=           0           0           0           0           0           0           0           0           0           0
 AtZEff=  -0.0000000  -0.0000000  -0.0000000  -0.0000000  -0.0000000  -0.0000000  -0.0000000  -0.0000000  -0.0000000  -0.0000000
 NQMom=    0.0000000   0.0000000   0.0000000   0.0000000   0.0000000   0.0000000   0.0000000   0.0000000   0.0000000   0.0000000
 NMagM=    0.0000000   0.0000000   0.0000000   0.0000000   0.0000000   0.0000000   0.0000000   0.0000000   0.0000000   0.0000000
 AtZNuc=   0.0000000   0.0000000   0.0000000   0.0000000   0.0000000   0.0000000   0.0000000   0.0000000   0.0000000   0.0000000

  Atom       241         242         243         244         245         246         247         248         249         250
 IAtWgt=           0           0           0           0           0           0           0           0           0           0
 AtmWgt=   0.0000000   0.0000000   0.0000000   0.0000000   0.0000000   0.0000000   0.0000000   0.0000000   0.0000000   0.0000000
 NucSpn=           0           0           0           0           0           0           0           0           0           0
 AtZEff=  -0.0000000  -0.0000000  -0.0000000  -0.0000000  -0.0000000  -0.0000000  -0.0000000  -0.0000000  -0.0000000  -0.0000000
 NQMom=    0.0000000   0.0000000   0.0000000   0.0000000   0.0000000   0.0000000   0.0000000   0.0000000   0.0000000   0.0000000
 NMagM=    0.0000000   0.0000000   0.0000000   0.0000000   0.0000000   0.0000000   0.0000000   0.0000000   0.0000000   0.0000000
 AtZNuc=   0.0000000   0.0000000   0.0000000   0.0000000   0.0000000   0.0000000   0.0000000   0.0000000   0.0000000   0.0000000

  Atom       251         252         253         254         255         256         257         258         259         260
 IAtWgt=           0           0           0           0           0           0           0           0           0           0
 AtmWgt=   0.0000000   0.0000000   0.0000000   0.0000000   0.0000000   0.0000000   0.0000000   0.0000000   0.0000000   0.0000000
 NucSpn=           0           0           0           0           0           0           0           0           0           0
 AtZEff=  -0.0000000  -0.0000000  -0.0000000  -0.0000000  -0.0000000  -0.0000000  -0.0000000  -0.0000000  -0.0000000  -0.0000000
 NQMom=    0.0000000   0.0000000   0.0000000   0.0000000   0.0000000   0.0000000   0.0000000   0.0000000   0.0000000   0.0000000
 NMagM=    0.0000000   0.0000000   0.0000000   0.0000000   0.0000000   0.0000000   0.0000000   0.0000000   0.0000000   0.0000000
 AtZNuc=   0.0000000   0.0000000   0.0000000   0.0000000   0.0000000   0.0000000   0.0000000   0.0000000   0.0000000   0.0000000

  Atom       261         262         263         264         265         266         267         268         269         270
 IAtWgt=           0           0           0           0           0           0           0           0           0           0
 AtmWgt=   0.0000000   0.0000000   0.0000000   0.0000000   0.0000000   0.0000000   0.0000000   0.0000000   0.0000000   0.0000000
 NucSpn=           0           0           0           0           0           0           0           0           0           0
 AtZEff=  -0.0000000  -0.0000000  -0.0000000  -0.0000000  -0.0000000  -0.0000000  -0.0000000  -0.0000000  -0.0000000  -0.0000000
 NQMom=    0.0000000   0.0000000   0.0000000   0.0000000   0.0000000   0.0000000   0.0000000   0.0000000   0.0000000   0.0000000
 NMagM=    0.0000000   0.0000000   0.0000000   0.0000000   0.0000000   0.0000000   0.0000000   0.0000000   0.0000000   0.0000000
 AtZNuc=   0.0000000   0.0000000   0.0000000   0.0000000   0.0000000   0.0000000   0.0000000   0.0000000   0.0000000   0.0000000

  Atom       271         272         273         274         275         276         277         278         279         280
 IAtWgt=           0           0           0           0           0           0           0           0           0           0
 AtmWgt=   0.0000000   0.0000000   0.0000000   0.0000000   0.0000000   0.0000000   0.0000000   0.0000000   0.0000000   0.0000000
 NucSpn=           0           0           0           0           0           0           0           0           0           0
 AtZEff=  -0.0000000  -0.0000000  -0.0000000  -0.0000000  -0.0000000  -0.0000000  -0.0000000  -0.0000000  -0.0000000  -0.0000000
 NQMom=    0.0000000   0.0000000   0.0000000   0.0000000   0.0000000   0.0000000   0.0000000   0.0000000   0.0000000   0.0000000
 NMagM=    0.0000000   0.0000000   0.0000000   0.0000000   0.0000000   0.0000000   0.0000000   0.0000000   0.0000000   0.0000000
 AtZNuc=   0.0000000   0.0000000   0.0000000   0.0000000   0.0000000   0.0000000   0.0000000   0.0000000   0.0000000   0.0000000

  Atom       281         282         283         284         285         286         287         288         289         290
 IAtWgt=           0           0           0           0           0           0           0           0           0           0
 AtmWgt=   0.0000000   0.0000000   0.0000000   0.0000000   0.0000000   0.0000000   0.0000000   0.0000000   0.0000000   0.0000000
 NucSpn=           0           0           0           0           0           0           0           0           0           0
 AtZEff=  -0.0000000  -0.0000000  -0.0000000  -0.0000000  -0.0000000  -0.0000000  -0.0000000  -0.0000000  -0.0000000  -0.0000000
 NQMom=    0.0000000   0.0000000   0.0000000   0.0000000   0.0000000   0.0000000   0.0000000   0.0000000   0.0000000   0.0000000
 NMagM=    0.0000000   0.0000000   0.0000000   0.0000000   0.0000000   0.0000000   0.0000000   0.0000000   0.0000000   0.0000000
 AtZNuc=   0.0000000   0.0000000   0.0000000   0.0000000   0.0000000   0.0000000   0.0000000   0.0000000   0.0000000   0.0000000

  Atom       291         292         293         294         295         296         297         298         299         300
 IAtWgt=           0           0           0           0           0           0           0           0           0           0
 AtmWgt=   0.0000000   0.0000000   0.0000000   0.0000000   0.0000000   0.0000000   0.0000000   0.0000000   0.0000000   0.0000000
 NucSpn=           0           0           0           0           0           0           0           0           0           0
 AtZEff=  -0.0000000  -0.0000000  -0.0000000  -0.0000000  -0.0000000  -0.0000000  -0.0000000  -0.0000000  -0.0000000  -0.0000000
 NQMom=    0.0000000   0.0000000   0.0000000   0.0000000   0.0000000   0.0000000   0.0000000   0.0000000   0.0000000   0.0000000
 NMagM=    0.0000000   0.0000000   0.0000000   0.0000000   0.0000000   0.0000000   0.0000000   0.0000000   0.0000000   0.0000000
 AtZNuc=   0.0000000   0.0000000   0.0000000   0.0000000   0.0000000   0.0000000   0.0000000   0.0000000   0.0000000   0.0000000

  Atom       301         302         303         304         305         306         307         308         309         310
 IAtWgt=           0           0           0           0           0           0           0           0           0           0
 AtmWgt=   0.0000000   0.0000000   0.0000000   0.0000000   0.0000000   0.0000000   0.0000000   0.0000000   0.0000000   0.0000000
 NucSpn=           0           0           0           0           0           0           0           0           0           0
 AtZEff=  -0.0000000  -0.0000000  -0.0000000  -0.0000000  -0.0000000  -0.0000000  -0.0000000  -0.0000000  -0.0000000  -0.0000000
 NQMom=    0.0000000   0.0000000   0.0000000   0.0000000   0.0000000   0.0000000   0.0000000   0.0000000   0.0000000   0.0000000
 NMagM=    0.0000000   0.0000000   0.0000000   0.0000000   0.0000000   0.0000000   0.0000000   0.0000000   0.0000000   0.0000000
 AtZNuc=   0.0000000   0.0000000   0.0000000   0.0000000   0.0000000   0.0000000   0.0000000   0.0000000   0.0000000   0.0000000

  Atom       311         312         313         314         315         316         317         318         319         320
 IAtWgt=           0           0           0           0           0           0           0           0           0           0
 AtmWgt=   0.0000000   0.0000000   0.0000000   0.0000000   0.0000000   0.0000000   0.0000000   0.0000000   0.0000000   0.0000000
 NucSpn=           0           0           0           0           0           0           0           0           0           0
 AtZEff=  -0.0000000  -0.0000000  -0.0000000  -0.0000000  -0.0000000  -0.0000000  -0.0000000  -0.0000000  -0.0000000  -0.0000000
 NQMom=    0.0000000   0.0000000   0.0000000   0.0000000   0.0000000   0.0000000   0.0000000   0.0000000   0.0000000   0.0000000
 NMagM=    0.0000000   0.0000000   0.0000000   0.0000000   0.0000000   0.0000000   0.0000000   0.0000000   0.0000000   0.0000000
 AtZNuc=   0.0000000   0.0000000   0.0000000   0.0000000   0.0000000   0.0000000   0.0000000   0.0000000   0.0000000   0.0000000

  Atom       321         322         323         324         325         326         327         328         329         330
[...]
 2289,1.\Bq,0,0.27059805,-1.64676953,-0.27059805\Bq,0,0.27059805,-1.646
 76953,0.27059805\Bq,0,0.28867513,-1.13113829,-0.8660254\Bq,0,0.2886751
 3,-1.13113829,0.8660254\Bq,0,0.28867513,-0.31464171,-0.8660254\Bq,0,0.
 28867513,-0.31464171,0.8660254\Bq,0,0.38268343,-0.72289,-0.92387953\Bq
 ,0,0.38268343,-0.72289,0.92387953\Bq,0,0.70710678,-0.72289,-0.70710678
 \Bq,0,0.70710678,-0.72289,0.70710678\Bq,0,0.3853646,-1.81961829,-0.288
 67513\Bq,0,0.3853646,-1.81961829,0.28867513\Bq,0,0.54428322,-1.41137,-
 0.70710678\Bq,0,0.54428322,-1.41137,0.70710678\Bq,0,0.59810852,-1.7940
 5343,-0.65328148\Bq,0,0.59810852,-1.79405343,0.65328148\Bq,0,0.8687065
 7,-1.41137,-0.92387953\Bq,0,0.86870657,-1.41137,0.92387953\Bq,0,0.9627
 1487,-1.81961829,-0.8660254\Bq,0,0.96271487,-1.81961829,0.8660254\Bq,0
 ,0.96271487,-1.00312171,-0.8660254\Bq,0,0.96271487,-1.00312171,0.86602
 54\Bq,0,1.25139,-1.41137,-1.\Bq,0,1.25139,-1.41137,1.\Bq,0,1.54006513,
 -1.81961829,-0.8660254\Bq,0,1.54006513,-1.81961829,0.8660254\Bq,0,1.54
 006513,-1.00312171,-0.8660254\Bq,0,1.54006513,-1.00312171,0.8660254\Bq
 ,0,1.63407343,-1.41137,-0.92387953\Bq,0,1.63407343,-1.41137,0.92387953
 \Bq,0,1.90467148,-1.79405343,-0.65328148\Bq,0,1.90467148,-1.79405343,0
 .65328148\Bq,0,1.95849678,-1.41137,-0.70710678\Bq,0,1.95849678,-1.4113
 7,0.70710678\Bq,0,2.1174154,-1.81961829,-0.28867513\Bq,0,2.1174154,-1.
 81961829,0.28867513\Bq,0,2.5427046,-1.66615829,-0.28867513\Bq,0,2.5427
 046,-1.66615829,0.28867513\Bq,0,2.75544852,-1.64059343,-0.65328148\Bq,
 0,2.75544852,-1.64059343,0.65328148\Bq,0,2.83137973,-2.07440658,0.\Bq,
 0,2.90873,-1.96501678,-0.5\Bq,0,2.90873,-1.96501678,0.5\Bq,0,3.0260465
 7,-1.25791,-0.92387953\Bq,0,3.02604657,-1.25791,0.92387953\Bq,0,3.1200
 5487,-1.66615829,-0.8660254\Bq,0,3.12005487,-1.66615829,0.8660254\Bq,0
 ,3.12005487,-0.84966171,-0.8660254\Bq,0,3.12005487,-0.84966171,0.86602
 54\Bq,0,3.13813195,-2.18178953,-0.27059805\Bq,0,3.13813195,-2.18178953
 ,0.27059805\Bq,0,3.40873,-2.25791,0.\Bq,0,3.40873,-2.07440658,-0.57735
 027\Bq,0,3.40873,-2.07440658,0.57735027\Bq,0,3.40873,-1.25791,-1.\Bq,0
 ,3.40873,-1.25791,1.\Bq,0,3.40873,-0.44141342,-0.57735027\Bq,0,3.40873
 ,-0.44141342,0.57735027\Bq,0,3.40873,-0.25791,0.\Bq,0,3.67932805,-2.18
 178953,-0.27059805\Bq,0,3.67932805,-2.18178953,0.27059805\Bq,0,3.67932
 805,-0.33403047,-0.27059805\Bq,0,3.67932805,-0.33403047,0.27059805\Bq,
 0,3.69740513,-1.66615829,-0.8660254\Bq,0,3.69740513,-1.66615829,0.8660
 254\Bq,0,3.69740513,-0.84966171,-0.8660254\Bq,0,3.69740513,-0.84966171
 ,0.8660254\Bq,0,3.79141343,-1.25791,-0.92387953\Bq,0,3.79141343,-1.257
 91,0.92387953\Bq,0,3.90873,-1.96501678,-0.5\Bq,0,3.90873,-1.96501678,0
 .5\Bq,0,3.90873,-0.55080322,-0.5\Bq,0,3.90873,-0.55080322,0.5\Bq,0,3.9
 8608027,-2.07440658,0.\Bq,0,3.98608027,-0.44141342,0.\Bq,0,4.06201148,
 -1.64059343,-0.65328148\Bq,0,4.06201148,-1.64059343,0.65328148\Bq,0,4.
 06201148,-0.87522657,-0.65328148\Bq,0,4.06201148,-0.87522657,0.6532814
 8\Bq,0,4.11583678,-1.25791,-0.70710678\Bq,0,4.11583678,-1.25791,0.7071
 0678\Bq,0,4.2747554,-1.66615829,-0.28867513\Bq,0,4.2747554,-1.66615829
 ,0.28867513\Bq,0,4.2747554,-0.84966171,-0.28867513\Bq,0,4.2747554,-0.8
 4966171,0.28867513\Bq,0,4.33260953,-1.25791,-0.38268343\Bq,0,4.3326095
 3,-1.25791,0.38268343\Bq,0,4.40873,-1.25791,0.\Bq,0,2.5427046,1.666158
 29,-0.28867513\Bq,0,2.5427046,1.66615829,0.28867513\Bq,0,2.75544852,1.
 64059343,-0.65328148\Bq,0,2.75544852,1.64059343,0.65328148\Bq,0,2.8313
 7973,2.07440658,0.\Bq,0,2.90873,1.96501678,-0.5\Bq,0,2.90873,1.9650167
 8,0.5\Bq,0,3.02604657,1.25791,-0.92387953\Bq,0,3.02604657,1.25791,0.92
 387953\Bq,0,3.12005487,0.84966171,-0.8660254\Bq,0,3.12005487,0.8496617
 1,0.8660254\Bq,0,3.12005487,1.66615829,-0.8660254\Bq,0,3.12005487,1.66
 615829,0.8660254\Bq,0,3.13813195,2.18178953,-0.27059805\Bq,0,3.1381319
 5,2.18178953,0.27059805\Bq,0,3.40873,0.25791,0.\Bq,0,3.40873,0.4414134
 2,-0.57735027\Bq,0,3.40873,0.44141342,0.57735027\Bq,0,3.40873,1.25791,
 -1.\Bq,0,3.40873,1.25791,1.\Bq,0,3.40873,2.07440658,-0.57735027\Bq,0,3
 .40873,2.07440658,0.57735027\Bq,0,3.40873,2.25791,0.\Bq,0,3.67932805,0
 .33403047,-0.27059805\Bq,0,3.67932805,0.33403047,0.27059805\Bq,0,3.679
 32805,2.18178953,-0.27059805\Bq,0,3.67932805,2.18178953,0.27059805\Bq,
 0,3.69740513,0.84966171,-0.8660254\Bq,0,3.69740513,0.84966171,0.866025
 4\Bq,0,3.69740513,1.66615829,-0.8660254\Bq,0,3.69740513,1.66615829,0.8
 660254\Bq,0,3.79141343,1.25791,-0.92387953\Bq,0,3.79141343,1.25791,0.9
 2387953\Bq,0,3.90873,0.55080322,-0.5\Bq,0,3.90873,0.55080322,0.5\Bq,0,
 3.90873,1.96501678,-0.5\Bq,0,3.90873,1.96501678,0.5\Bq,0,3.98608027,0.
 44141342,0.\Bq,0,3.98608027,2.07440658,0.\Bq,0,4.06201148,0.87522657,-
 0.65328148\Bq,0,4.06201148,0.87522657,0.65328148\Bq,0,4.06201148,1.640
 59343,-0.65328148\Bq,0,4.06201148,1.64059343,0.65328148\Bq,0,4.1158367
 8,1.25791,-0.70710678\Bq,0,4.11583678,1.25791,0.70710678\Bq,0,4.274755
 4,0.84966171,-0.28867513\Bq,0,4.2747554,0.84966171,0.28867513\Bq,0,4.2
 747554,1.66615829,-0.28867513\Bq,0,4.2747554,1.66615829,0.28867513\Bq,
 0,4.33260953,1.25791,-0.38268343\Bq,0,4.33260953,1.25791,0.38268343\Bq
 ,0,4.40873,1.25791,0.\Bq,0,0.24972,2.51472,0.\Bq,0,0.32584047,2.51472,
 -0.38268343\Bq,0,0.32584047,2.51472,0.38268343\Bq,0,0.3836946,2.106471
 71,-0.28867513\Bq,0,0.3836946,2.10647171,0.28867513\Bq,0,0.3836946,2.9
 2296829,-0.28867513\Bq,0,0.3836946,2.92296829,0.28867513\Bq,0,0.542613
 22,2.51472,-0.70710678\Bq,0,0.54261322,2.51472,0.70710678\Bq,0,0.59643
 852,2.13203657,-0.65328148\Bq,0,0.59643852,2.13203657,0.65328148\Bq,0,
 0.59643852,2.89740343,-0.65328148\Bq,0,0.59643852,2.89740343,0.6532814
 8\Bq,0,0.67236973,3.33121658,0.\Bq,0,0.74972,3.22182678,-0.5\Bq,0,0.74
 972,3.22182678,0.5\Bq,0,0.86703657,2.51472,-0.92387953\Bq,0,0.86703657
 ,2.51472,0.92387953\Bq,0,0.96104487,2.10647171,-0.8660254\Bq,0,0.96104
 487,2.10647171,0.8660254\Bq,0,0.96104487,2.92296829,-0.8660254\Bq,0,0.
 96104487,2.92296829,0.8660254\Bq,0,0.97912195,3.43859953,-0.27059805\B
 q,0,0.97912195,3.43859953,0.27059805\Bq,0,1.24972,2.51472,-1.\Bq,0,1.2
 4972,2.51472,1.\Bq,0,1.24972,3.33121658,-0.57735027\Bq,0,1.24972,3.331
 21658,0.57735027\Bq,0,1.24972,3.51472,0.\Bq,0,1.52031805,3.43859953,-0
 .27059805\Bq,0,1.52031805,3.43859953,0.27059805\Bq,0,1.53839513,2.1064
 7171,-0.8660254\Bq,0,1.53839513,2.10647171,0.8660254\Bq,0,1.53839513,2
 .92296829,-0.8660254\Bq,0,1.53839513,2.92296829,0.8660254\Bq,0,1.63240
 343,2.51472,-0.92387953\Bq,0,1.63240343,2.51472,0.92387953\Bq,0,1.7497
 2,3.22182678,-0.5\Bq,0,1.74972,3.22182678,0.5\Bq,0,1.82707027,3.331216
 58,0.\Bq,0,1.90300148,2.13203657,-0.65328148\Bq,0,1.90300148,2.1320365
 7,0.65328148\Bq,0,1.90300148,2.89740343,-0.65328148\Bq,0,1.90300148,2.
 89740343,0.65328148\Bq,0,1.95682678,2.51472,-0.70710678\Bq,0,1.9568267
 8,2.51472,0.70710678\Bq,0,2.1157454,2.10647171,-0.28867513\Bq,0,2.1157
 454,2.10647171,0.28867513\Bq,0,2.1157454,2.92296829,-0.28867513\Bq,0,2
 .1157454,2.92296829,0.28867513\Bq,0,2.17359953,2.51472,-0.38268343\Bq,
 0,2.17359953,2.51472,0.38268343\Bq,0,2.24972,2.51472,0.\Bq,0,-2.24972,
 2.51472,0.\Bq,0,-2.17359953,2.51472,-0.38268343\Bq,0,-2.17359953,2.514
 72,0.38268343\Bq,0,-2.1157454,2.10647171,-0.28867513\Bq,0,-2.1157454,2
 .10647171,0.28867513\Bq,0,-2.1157454,2.92296829,-0.28867513\Bq,0,-2.11
 57454,2.92296829,0.28867513\Bq,0,-1.95682678,2.51472,-0.70710678\Bq,0,
 -1.95682678,2.51472,0.70710678\Bq,0,-1.90300148,2.13203657,-0.65328148
 \Bq,0,-1.90300148,2.13203657,0.65328148\Bq,0,-1.90300148,2.89740343,-0
 .65328148\Bq,0,-1.90300148,2.89740343,0.65328148\Bq,0,-1.82707027,3.33
 121658,0.\Bq,0,-1.74972,3.22182678,-0.5\Bq,0,-1.74972,3.22182678,0.5\B
 q,0,-1.63240343,2.51472,-0.92387953\Bq,0,-1.63240343,2.51472,0.9238795
 3\Bq,0,-1.53839513,2.10647171,-0.8660254\Bq,0,-1.53839513,2.10647171,0
 .8660254\Bq,0,-1.53839513,2.92296829,-0.8660254\Bq,0,-1.53839513,2.922
 96829,0.8660254\Bq,0,-1.52031805,3.43859953,-0.27059805\Bq,0,-1.520318
 05,3.43859953,0.27059805\Bq,0,-1.24972,2.51472,-1.\Bq,0,-1.24972,2.514
 72,1.\Bq,0,-1.24972,3.33121658,-0.57735027\Bq,0,-1.24972,3.33121658,0.
 57735027\Bq,0,-1.24972,3.51472,0.\Bq,0,-0.97912195,3.43859953,-0.27059
 805\Bq,0,-0.97912195,3.43859953,0.27059805\Bq,0,-0.96104487,2.10647171
 ,-0.8660254\Bq,0,-0.96104487,2.10647171,0.8660254\Bq,0,-0.96104487,2.9
 2296829,-0.8660254\Bq,0,-0.96104487,2.92296829,0.8660254\Bq,0,-0.86703
 657,2.51472,-0.92387953\Bq,0,-0.86703657,2.51472,0.92387953\Bq,0,-0.74
 972,3.22182678,-0.5\Bq,0,-0.74972,3.22182678,0.5\Bq,0,-0.67236973,3.33
 121658,0.\Bq,0,-0.59643852,2.13203657,-0.65328148\Bq,0,-0.59643852,2.1
 3203657,0.65328148\Bq,0,-0.59643852,2.89740343,-0.65328148\Bq,0,-0.596
 43852,2.89740343,0.65328148\Bq,0,-0.54261322,2.51472,-0.70710678\Bq,0,
 -0.54261322,2.51472,0.70710678\Bq,0,-0.3836946,2.10647171,-0.28867513\
 Bq,0,-0.3836946,2.10647171,0.28867513\Bq,0,-0.3836946,2.92296829,-0.28
 867513\Bq,0,-0.3836946,2.92296829,0.28867513\Bq,0,-0.32584047,2.51472,
 -0.38268343\Bq,0,-0.32584047,2.51472,0.38268343\Bq,0,-0.24972,2.51472,
 0.\Bq,0,-4.40873,1.25791,0.\Bq,0,-4.33260953,1.25791,-0.38268343\Bq,0,
 -4.33260953,1.25791,0.38268343\Bq,0,-4.2747554,0.84966171,-0.28867513\
 Bq,0,-4.2747554,0.84966171,0.28867513\Bq,0,-4.2747554,1.66615829,-0.28
 867513\Bq,0,-4.2747554,1.66615829,0.28867513\Bq,0,-4.11583678,1.25791,
 -0.70710678\Bq,0,-4.11583678,1.25791,0.70710678\Bq,0,-4.06201148,0.875
 22657,-0.65328148\Bq,0,-4.06201148,0.87522657,0.65328148\Bq,0,-4.06201
 148,1.64059343,-0.65328148\Bq,0,-4.06201148,1.64059343,0.65328148\Bq,0
 ,-3.98608027,0.44141342,0.\Bq,0,-3.98608027,2.07440658,0.\Bq,0,-3.9087
 3,0.55080322,-0.5\Bq,0,-3.90873,0.55080322,0.5\Bq,0,-3.90873,1.9650167
 8,-0.5\Bq,0,-3.90873,1.96501678,0.5\Bq,0,-3.79141343,1.25791,-0.923879
 53\Bq,0,-3.79141343,1.25791,0.92387953\Bq,0,-3.69740513,0.84966171,-0.
 8660254\Bq,0,-3.69740513,0.84966171,0.8660254\Bq,0,-3.69740513,1.66615
 829,-0.8660254\Bq,0,-3.69740513,1.66615829,0.8660254\Bq,0,-3.67932805,
 0.33403047,-0.27059805\Bq,0,-3.67932805,0.33403047,0.27059805\Bq,0,-3.
 67932805,2.18178953,-0.27059805\Bq,0,-3.67932805,2.18178953,0.27059805
 \Bq,0,-3.40873,0.25791,0.\Bq,0,-3.40873,0.44141342,-0.57735027\Bq,0,-3
 .40873,0.44141342,0.57735027\Bq,0,-3.40873,1.25791,-1.\Bq,0,-3.40873,1
 .25791,1.\Bq,0,-3.40873,2.07440658,-0.57735027\Bq,0,-3.40873,2.0744065
 8,0.57735027\Bq,0,-3.40873,2.25791,0.\Bq,0,-3.13813195,2.18178953,-0.2
 7059805\Bq,0,-3.13813195,2.18178953,0.27059805\Bq,0,-3.12005487,0.8496
 6171,-0.8660254\Bq,0,-3.12005487,0.84966171,0.8660254\Bq,0,-3.12005487
 ,1.66615829,-0.8660254\Bq,0,-3.12005487,1.66615829,0.8660254\Bq,0,-3.0
 2604657,1.25791,-0.92387953\Bq,0,-3.02604657,1.25791,0.92387953\Bq,0,-
 2.90873,1.96501678,-0.5\Bq,0,-2.90873,1.96501678,0.5\Bq,0,-2.83137973,
 2.07440658,0.\Bq,0,-2.75544852,1.64059343,-0.65328148\Bq,0,-2.75544852
 ,1.64059343,0.65328148\Bq,0,-2.5427046,1.66615829,-0.28867513\Bq,0,-2.
 5427046,1.66615829,0.28867513\Bq,0,-4.40873,-1.25791,0.\Bq,0,-4.332609
 53,-1.25791,-0.38268343\Bq,0,-4.33260953,-1.25791,0.38268343\Bq,0,-4.2
 747554,-1.66615829,-0.28867513\Bq,0,-4.2747554,-1.66615829,0.28867513\
 Bq,0,-4.2747554,-0.84966171,-0.28867513\Bq,0,-4.2747554,-0.84966171,0.
 28867513\Bq,0,-4.11583678,-1.25791,-0.70710678\Bq,0,-4.11583678,-1.257
 91,0.70710678\Bq,0,-4.06201148,-1.64059343,-0.65328148\Bq,0,-4.0620114
 8,-1.64059343,0.65328148\Bq,0,-4.06201148,-0.87522657,-0.65328148\Bq,0
 ,-4.06201148,-0.87522657,0.65328148\Bq,0,-3.98608027,-2.07440658,0.\Bq
 ,0,-3.98608027,-0.44141342,0.\Bq,0,-3.90873,-1.96501678,-0.5\Bq,0,-3.9
 0873,-1.96501678,0.5\Bq,0,-3.90873,-0.55080322,-0.5\Bq,0,-3.90873,-0.5
 5080322,0.5\Bq,0,-3.79141343,-1.25791,-0.92387953\Bq,0,-3.79141343,-1.
 25791,0.92387953\Bq,0,-3.69740513,-1.66615829,-0.8660254\Bq,0,-3.69740
 513,-1.66615829,0.8660254\Bq,0,-3.69740513,-0.84966171,-0.8660254\Bq,0
 ,-3.69740513,-0.84966171,0.8660254\Bq,0,-3.67932805,-2.18178953,-0.270
 59805\Bq,0,-3.67932805,-2.18178953,0.27059805\Bq,0,-3.67932805,-0.3340
 3047,-0.27059805\Bq,0,-3.67932805,-0.33403047,0.27059805\Bq,0,-3.40873
 ,-2.25791,0.\Bq,0,-3.40873,-2.07440658,-0.57735027\Bq,0,-3.40873,-2.07
 440658,0.57735027\Bq,0,-3.40873,-1.25791,-1.\Bq,0,-3.40873,-1.25791,1.
 \Bq,0,-3.40873,-0.44141342,-0.57735027\Bq,0,-3.40873,-0.44141342,0.577
 35027\Bq,0,-3.40873,-0.25791,0.\Bq,0,-3.13813195,-2.18178953,-0.270598
 05\Bq,0,-3.13813195,-2.18178953,0.27059805\Bq,0,-3.12005487,-1.6661582
 9,-0.8660254\Bq,0,-3.12005487,-1.66615829,0.8660254\Bq,0,-3.12005487,-
 0.84966171,-0.8660254\Bq,0,-3.12005487,-0.84966171,0.8660254\Bq,0,-3.0
 2604657,-1.25791,-0.92387953\Bq,0,-3.02604657,-1.25791,0.92387953\Bq,0
 ,-2.90873,-1.96501678,-0.5\Bq,0,-2.90873,-1.96501678,0.5\Bq,0,-2.83137
 973,-2.07440658,0.\Bq,0,-2.75544852,-1.64059343,-0.65328148\Bq,0,-2.75
 544852,-1.64059343,0.65328148\Bq,0,-2.5427046,-1.66615829,-0.28867513\
 Bq,0,-2.5427046,-1.66615829,0.28867513\Bq,0,-2.24972,-2.51472,0.\Bq,0,
 -2.17359953,-2.51472,-0.38268343\Bq,0,-2.17359953,-2.51472,0.38268343\
 Bq,0,-2.1157454,-2.92296829,-0.28867513\Bq,0,-2.1157454,-2.92296829,0.
 28867513\Bq,0,-2.1157454,-2.10647171,-0.28867513\Bq,0,-2.1157454,-2.10
 647171,0.28867513\Bq,0,-1.95682678,-2.51472,-0.70710678\Bq,0,-1.956826
 78,-2.51472,0.70710678\Bq,0,-1.90300148,-2.89740343,-0.65328148\Bq,0,-
 1.90300148,-2.89740343,0.65328148\Bq,0,-1.90300148,-2.13203657,-0.6532
 8148\Bq,0,-1.90300148,-2.13203657,0.65328148\Bq,0,-1.82707027,-3.33121
 658,0.\Bq,0,-1.74972,-3.22182678,-0.5\Bq,0,-1.74972,-3.22182678,0.5\Bq
 ,0,-1.63240343,-2.51472,-0.92387953\Bq,0,-1.63240343,-2.51472,0.923879
 53\Bq,0,-1.53839513,-2.92296829,-0.8660254\Bq,0,-1.53839513,-2.9229682
 9,0.8660254\Bq,0,-1.53839513,-2.10647171,-0.8660254\Bq,0,-1.53839513,-
 2.10647171,0.8660254\Bq,0,-1.52031805,-3.43859953,-0.27059805\Bq,0,-1.
 52031805,-3.43859953,0.27059805\Bq,0,-1.24972,-3.51472,0.\Bq,0,-1.2497
 2,-3.33121658,-0.57735027\Bq,0,-1.24972,-3.33121658,0.57735027\Bq,0,-1
 .24972,-2.51472,-1.\Bq,0,-1.24972,-2.51472,1.\Bq,0,-0.97912195,-3.4385
 9953,-0.27059805\Bq,0,-0.97912195,-3.43859953,0.27059805\Bq,0,-0.96104
 487,-2.92296829,-0.8660254\Bq,0,-0.96104487,-2.92296829,0.8660254\Bq,0
 ,-0.96104487,-2.10647171,-0.8660254\Bq,0,-0.96104487,-2.10647171,0.866
 0254\Bq,0,-0.86703657,-2.51472,-0.92387953\Bq,0,-0.86703657,-2.51472,0
 .92387953\Bq,0,-0.74972,-3.22182678,-0.5\Bq,0,-0.74972,-3.22182678,0.5
 \Bq,0,-0.67236973,-3.33121658,0.\Bq,0,-0.59643852,-2.89740343,-0.65328
 148\Bq,0,-0.59643852,-2.89740343,0.65328148\Bq,0,-0.59643852,-2.132036
 57,-0.65328148\Bq,0,-0.59643852,-2.13203657,0.65328148\Bq,0,-0.5426132
 2,-2.51472,-0.70710678\Bq,0,-0.54261322,-2.51472,0.70710678\Bq,0,-0.38
 36946,-2.92296829,-0.28867513\Bq,0,-0.3836946,-2.92296829,0.28867513\B
 q,0,-0.3836946,-2.10647171,-0.28867513\Bq,0,-0.3836946,-2.10647171,0.2
 8867513\Bq,0,-0.32584047,-2.51472,-0.38268343\Bq,0,-0.32584047,-2.5147
 2,0.38268343\Bq,0,-0.24972,-2.51472,0.\Bq,0,0.24972,-2.51472,0.\Bq,0,0
 .32584047,-2.51472,-0.38268343\Bq,0,0.32584047,-2.51472,0.38268343\Bq,
 0,0.3836946,-2.92296829,-0.28867513\Bq,0,0.3836946,-2.92296829,0.28867
 513\Bq,0,0.3836946,-2.10647171,-0.28867513\Bq,0,0.3836946,-2.10647171,
 0.28867513\Bq,0,0.54261322,-2.51472,-0.70710678\Bq,0,0.54261322,-2.514
 72,0.70710678\Bq,0,0.59643852,-2.89740343,-0.65328148\Bq,0,0.59643852,
 -2.89740343,0.65328148\Bq,0,0.59643852,-2.13203657,-0.65328148\Bq,0,0.
 59643852,-2.13203657,0.65328148\Bq,0,0.67236973,-3.33121658,0.\Bq,0,0.
 74972,-3.22182678,-0.5\Bq,0,0.74972,-3.22182678,0.5\Bq,0,0.86703657,-2
 .51472,-0.92387953\Bq,0,0.86703657,-2.51472,0.92387953\Bq,0,0.96104487
 ,-2.92296829,-0.8660254\Bq,0,0.96104487,-2.92296829,0.8660254\Bq,0,0.9
 6104487,-2.10647171,-0.8660254\Bq,0,0.96104487,-2.10647171,0.8660254\B
 q,0,0.97912195,-3.43859953,-0.27059805\Bq,0,0.97912195,-3.43859953,0.2
 7059805\Bq,0,1.24972,-3.51472,0.\Bq,0,1.24972,-3.33121658,-0.57735027\
 Bq,0,1.24972,-3.33121658,0.57735027\Bq,0,1.24972,-2.51472,-1.\Bq,0,1.2
 4972,-2.51472,1.\Bq,0,1.52031805,-3.43859953,-0.27059805\Bq,0,1.520318
 05,-3.43859953,0.27059805\Bq,0,1.53839513,-2.92296829,-0.8660254\Bq,0,
 1.53839513,-2.92296829,0.8660254\Bq,0,1.53839513,-2.10647171,-0.866025
 4\Bq,0,1.53839513,-2.10647171,0.8660254\Bq,0,1.63240343,-2.51472,-0.92
 387953\Bq,0,1.63240343,-2.51472,0.92387953\Bq,0,1.74972,-3.22182678,-0
 .5\Bq,0,1.74972,-3.22182678,0.5\Bq,0,1.82707027,-3.33121658,0.\Bq,0,1.
 90300148,-2.89740343,-0.65328148\Bq,0,1.90300148,-2.89740343,0.6532814
 8\Bq,0,1.90300148,-2.13203657,-0.65328148\Bq,0,1.90300148,-2.13203657,
 0.65328148\Bq,0,1.95682678,-2.51472,-0.70710678\Bq,0,1.95682678,-2.514
 72,0.70710678\Bq,0,2.1157454,-2.92296829,-0.28867513\Bq,0,2.1157454,-2
 .92296829,0.28867513\Bq,0,2.1157454,-2.10647171,-0.28867513\Bq,0,2.115
 7454,-2.10647171,0.28867513\Bq,0,2.17359953,-2.51472,-0.38268343\Bq,0,
 2.17359953,-2.51472,0.38268343\Bq,0,2.24972,-2.51472,0.\Bq,0,0.5269432
 2,0.,-0.70710678\Bq,0,0.52694322,0.,0.70710678\Bq,0,0.85136657,0.,-0.9
 2387953\Bq,0,0.85136657,0.,0.92387953\Bq,0,0.94537487,-0.40824829,-0.8
 660254\Bq,0,0.94537487,-0.40824829,0.8660254\Bq,0,0.94537487,0.4082482
 9,-0.8660254\Bq,0,0.94537487,0.40824829,0.8660254\Bq,0,1.23405,0.,-1.\
 Bq,0,1.23405,0.,1.\Bq,0,1.52272513,-0.40824829,-0.8660254\Bq,0,1.52272
 513,-0.40824829,0.8660254\Bq,0,1.52272513,0.40824829,-0.8660254\Bq,0,1
 .52272513,0.40824829,0.8660254\Bq,0,1.61673343,0.,-0.92387953\Bq,0,1.6
 1673343,0.,0.92387953\Bq,0,1.94115678,0.,-0.70710678\Bq,0,1.94115678,0
 .,0.70710678\Bq,0,-1.94115678,0.,-0.70710678\Bq,0,-1.94115678,0.,0.707
 10678\Bq,0,-1.61673343,0.,-0.92387953\Bq,0,-1.61673343,0.,0.92387953\B
 q,0,-1.52272513,-0.40824829,-0.8660254\Bq,0,-1.52272513,-0.40824829,0.
 8660254\Bq,0,-1.52272513,0.40824829,-0.8660254\Bq,0,-1.52272513,0.4082
 4829,0.8660254\Bq,0,-1.23405,0.,-1.\Bq,0,-1.23405,0.,1.\Bq,0,-0.945374
 87,-0.40824829,-0.8660254\Bq,0,-0.94537487,-0.40824829,0.8660254\Bq,0,
 -0.94537487,0.40824829,-0.8660254\Bq,0,-0.94537487,0.40824829,0.866025
 4\Bq,0,-0.85136657,0.,-0.92387953\Bq,0,-0.85136657,0.,0.92387953\Bq,0,
 -0.52694322,0.,-0.70710678\Bq,0,-0.52694322,0.,0.70710678\\Version=ES6
 4L-G16RevA.03\HF=-385.805813\RMSD=4.651e-09\Dipole=0.0000001,0.,0.\Qua
 drupole=3.0348844,2.8431896,-5.878074,0.,0.,0.\PG=C01 [X(C10H8)]\\@


 THOUGH I SPEAK WITH THE TONGUES OF MEN AND OF ANGELS, 
 AND HAVE NOT LOVE,
 I AM BECOME AS SOUNDING BRASS, A TINKLING CYMBAL.
 AND THOUGH I HAVE THE GIFT OF PROPHECY,
 AND UNDERSTAND ALL MYSTERIES, AND ALL KNOWLEDGE.
 AND THOUGH I HAVE ALL FAITH, SO THAT I COULD REMOVE MOUNTAINS,
 AND HAVE NOT LOVE, I AM NOTHING.
 AND THOUGH I BESTOW ALL MY GOODS TO FEED THE POOR,
 AND THOUGH I GIVE MY BODY TO BE BURNED,
 AND HAVE NOT LOVE IT PROFITETH ME NOTHING.
 LOVE SUFFERETH LONG, AND IS KIND,
 LOVE ENVIETH NOT,
 LOVE VAUNTETH NOT ITSELF, IS NOT PUFFED UP,
 DOTH NOT BEHAVE ITSELF UNSEEMLY, SEEKETH NOT HER OWN,
 IS NOT EASILY PROVOKED, THINKETH NO EVIL,
 REJOICETH NOT IN INIQUITY, BUT REJOICETH IN THE TRUTH,
 BEARETH ALL THINGS, BELIEVETH ALL THINGS,
 HOPETH ALL THINGS, ENDURETH ALL THINGS.
 LOVE NEVER FAILETH, BUT WHETHER THERE BE PROPHECIES, THEY SHALL FAIL, 
 WHETHER THERE BE TONGUES, THEY SHALL CEASE,
 WHETHER THERE BE KNOWLEDGE, IT SHALL VANISH AWAY.
 FOR WE KNOW IN PART, AND WE PROPHESY IN PART.
 BUT WHEN THAT WHICH IS PERFECT IS COME, THEN THAT WHICH IS IN PART 
 SHALL BE DONE AWAY. 
 WHEN I WAS A CHILD, I SPAKE AS A CHILD, I UNDERSTOOD AS A CHILD, 
 I THOUGHT AS A CHILD.
 BUT WHEN I BECAME A MAN, I PUT AWAY CHILDISH THINGS.
 FOR NOW WE SEE THROUGH A GLASS, DARKLY, BUT THEN FACE TO FACE.
 NOW I KNOW IN PART. BUT THEN SHALL I KNOW EVEN AS ALSO I AM KNOWN.
 AND NOW ABIDETH FAITH, HOPE AND LOVE, THESE THREE.
 BUT THE GREATEST OF THESE IS LOVE.

                     I CORINTHIANS 13
 Job cpu time:       0 days  0 hours  5 minutes 11.5 seconds.
 Elapsed time:       0 days  0 hours  0 minutes 42.3 seconds.
 File lengths (MBytes):  RWF=     14 Int=      0 D2E=      0 Chk=      4 Scr=      1
 Normal termination of Gaussian 16 at Fri Sep  3 11:21:45 2021.
