 Entering Gaussian System, Link 0=g16
 Initial command:
 /share/programs/G16_SLATER/g16/l1.exe "/scratch/yannick.35155/Gau-40720.inp" -scrdir="/scratch/yannick.35155/"
 Entering Link 1 = /share/programs/G16_SLATER/g16/l1.exe PID=     40879.
  
 Copyright (c) 1988,1990,1992,1993,1995,1998,2003,2009,2016,
            Gaussian, Inc.  All Rights Reserved.
  
 This is part of the Gaussian(R) 16 program.  It is based on
 the Gaussian(R) 09 system (copyright 2009, Gaussian, Inc.),
 the Gaussian(R) 03 system (copyright 2003, Gaussian, Inc.),
 the Gaussian(R) 98 system (copyright 1998, Gaussian, Inc.),
 the Gaussian(R) 94 system (copyright 1995, Gaussian, Inc.),
 the Gaussian 92(TM) system (copyright 1992, Gaussian, Inc.),
 the Gaussian 90(TM) system (copyright 1990, Gaussian, Inc.),
 the Gaussian 88(TM) system (copyright 1988, Gaussian, Inc.),
 the Gaussian 86(TM) system (copyright 1986, Carnegie Mellon
 University), and the Gaussian 82(TM) system (copyright 1983,
 Carnegie Mellon University). Gaussian is a federally registered
 trademark of Gaussian, Inc.
  
 This software contains proprietary and confidential information,
 including trade secrets, belonging to Gaussian, Inc.
  
 This software is provided under written license and may be
 used, copied, transmitted, or stored only in accord with that
 written license.
  
 The following legend is applicable only to US Government
 contracts under FAR:
  
                    RESTRICTED RIGHTS LEGEND
  
 Use, reproduction and disclosure by the US Government is
 subject to restrictions as set forth in subparagraphs (a)
 and (c) of the Commercial Computer Software - Restricted
 Rights clause in FAR 52.227-19.
  
 Gaussian, Inc.
 340 Quinnipiac St., Bldg. 40, Wallingford CT 06492
  
  
 ---------------------------------------------------------------
 Warning -- This program may not be used in any manner that
 competes with the business of Gaussian, Inc. or will provide
 assistance to any competitor of Gaussian, Inc.  The licensee
 of this program is prohibited from giving any competitor of
 Gaussian, Inc. access to this program.  By using this program,
 the user acknowledges that Gaussian, Inc. is engaged in the
 business of creating and licensing software in the field of
 computational chemistry and represents and warrants to the
 licensee that it is not a competitor of Gaussian, Inc. and that
 it will not use this program in any manner prohibited above.
 ---------------------------------------------------------------
  

 Cite this work as:
 Gaussian 16, Revision A.03,
 M. J. Frisch, G. W. Trucks, H. B. Schlegel, G. E. Scuseria, 
 M. A. Robb, J. R. Cheeseman, G. Scalmani, V. Barone, 
 G. A. Petersson, H. Nakatsuji, X. Li, M. Caricato, A. V. Marenich, 
 J. Bloino, B. G. Janesko, R. Gomperts, B. Mennucci, H. P. Hratchian, 
 J. V. Ortiz, A. F. Izmaylov, J. L. Sonnenberg, D. Williams-Young, 
 F. Ding, F. Lipparini, F. Egidi, J. Goings, B. Peng, A. Petrone, 
 T. Henderson, D. Ranasinghe, V. G. Zakrzewski, J. Gao, N. Rega, 
 G. Zheng, W. Liang, M. Hada, M. Ehara, K. Toyota, R. Fukuda, 
 J. Hasegawa, M. Ishida, T. Nakajima, Y. Honda, O. Kitao, H. Nakai, 
 T. Vreven, K. Throssell, J. A. Montgomery, Jr., J. E. Peralta, 
 F. Ogliaro, M. J. Bearpark, J. J. Heyd, E. N. Brothers, K. N. Kudin, 
 V. N. Staroverov, T. A. Keith, R. Kobayashi, J. Normand, 
 K. Raghavachari, A. P. Rendell, J. C. Burant, S. S. Iyengar, 
 J. Tomasi, M. Cossi, J. M. Millam, M. Klene, C. Adamo, R. Cammi, 
 J. W. Ochterski, R. L. Martin, K. Morokuma, O. Farkas, 
 J. B. Foresman, and D. J. Fox, Gaussian, Inc., Wallingford CT, 2016.
 
 ******************************************
 Gaussian 16:  ES64L-G16RevA.03 25-Dec-2016
                 6-Sep-2021 
 ******************************************
 %nproc=32
 Will use up to   32 processors via shared memory.
 %mem=32000MB
 ----------------------------------------------------------------------
 #P b3lyp/6-311++G(d,p) SCF(Tight) CPHF(Separate) Int(Grid=SuperFine) N
 MR geom=connectivity
 ----------------------------------------------------------------------
 1/38=1,57=2,172=1/1;
 2/12=2,17=6,18=5,40=1/2;
 3/5=4,6=6,7=1111,11=2,25=1,30=1,74=-5,75=-7/1,2,3,8;
 4//1;
 5/5=2,32=2,38=5/2;
 8/6=1,10=90,11=11/1;
 10/8=1,13=100,45=16/2;
 6/7=2,8=2,9=2,10=2,28=1/1;
 99/9=1/99;
 Leave Link    1 at Mon Sep  6 16:46:37 2021, MaxMem=  4194304000 cpu:               4.7 elap:               0.3
 (Enter /share/programs/G16_SLATER/g16/l101.exe)
 -----
 Title
 -----
 Symbolic Z-matrix:
 Charge =  0 Multiplicity = 1
 C                     2.45076  -0.71174   0. 
 C                     2.45076   0.71174   0. 
 C                     1.25139   1.41137   0. 
 C                     0.        0.72289   0. 
 C                    -1.25139   1.41137   0. 
 C                    -2.45076   0.71174   0. 
 C                    -2.45076  -0.71174   0. 
 C                    -1.25139  -1.41137   0. 
 C                     0.       -0.72289   0. 
 C                     1.25139  -1.41137   0. 
 H                     3.40873  -1.25791   0. 
 H                     3.40873   1.25791   0. 
 H                     1.24972   2.51472   0. 
 H                    -1.24972   2.51472   0. 
 H                    -3.40873   1.25791   0. 
 H                    -3.40873  -1.25791   0. 
 H                    -1.24972  -2.51472   0. 
 H                     1.24972  -2.51472   0. 
 Bq                    1.74365  -0.71174  -0.70711 
 Bq                    1.74365  -0.71174   0.70711 
 Bq                    1.75724  -0.51665  -0.69352 
 Bq                    1.75724  -0.51665   0.69352 
 Bq                    1.89519  -0.71174  -0.83147 
 Bq                    1.89519  -0.71174   0.83147 
 Bq                    1.9127   -0.9105   -0.81914 
 Bq                    1.9127   -0.9105    0.81914 
 Bq                    1.9127   -0.51298  -0.81914 
 Bq                    1.9127   -0.51298   0.81914 
 Bq                    1.96889  -1.11636  -0.77723 
 Bq                    1.96889  -1.11636   0.77723 
 Bq                    1.96889  -0.30712  -0.77723 
 Bq                    1.96889  -0.30712   0.77723 
 Bq                    2.04251  -1.28909  -0.70711 
 Bq                    2.04251  -1.28909   0.70711 
 Bq                    2.04251  -0.13439  -0.70711 
 Bq                    2.04251  -0.13439   0.70711 
 Bq                    2.06808  -0.71174  -0.92388 
 Bq                    2.06808  -0.71174   0.92388 
 Bq                    2.10731  -0.92059  -0.91566 
 Bq                    2.10731  -0.92059   0.91566 
 Bq                    2.10731  -0.50289  -0.91566 
 Bq                    2.10731  -0.50289   0.91566 
 Bq                    2.16208  -1.11999  -0.86603 
 Bq                    2.16208  -1.11999   0.86603 
 Bq                    2.16208  -0.30349  -0.86603 
 Bq                    2.16208  -0.30349   0.86603 
 Bq                    2.19194  -1.50042  -0.55768 
 Bq                    2.19194  -1.50042   0.55768 
 Bq                    2.25567  -0.71174  -0.98079 
 Bq                    2.25567  -0.71174   0.98079 
 Bq                    2.3      -1.35134  -0.75378 
 Bq                    2.3      -1.35134   0.75378 
 Bq                    2.3      -0.07214  -0.75378 
 Bq                    2.3      -0.07214   0.75378 
 Bq                    2.30133  -0.92306  -0.96593 
 Bq                    2.30133  -0.92306   0.96593 
 Bq                    2.30133  -0.50042  -0.96593 
 Bq                    2.30133  -0.50042   0.96593 
 Bq                    2.31233  -1.60206  -0.43378 
 Bq                    2.31233  -1.60206   0.43378 
 Bq                    2.31281  -1.69253  -0.13795 
 Bq                    2.31281  -1.69253   0.13795 
 Bq                    2.45076  -1.71174   0. 
 Bq                    2.45076  -1.67142  -0.28108 
 Bq                    2.45076  -1.67142   0.28108 
 Bq                    2.45076  -1.52824  -0.57735 
 Bq                    2.45076  -1.52824   0.57735 
 Bq                    2.45076  -1.13814  -0.90453 
 Bq                    2.45076  -1.13814   0.90453 
 Bq                    2.45076  -0.71174  -1. 
 Bq                    2.45076  -0.71174   1. 
 Bq                    2.45076  -0.28534  -0.90453 
 Bq                    2.45076  -0.28534   0.90453 
 Bq                    2.60019  -0.92306  -0.96593 
 Bq                    2.60019  -0.92306   0.96593 
 Bq                    2.60019  -0.50042  -0.96593 
 Bq                    2.60019  -0.50042   0.96593 
 Bq                    2.60152  -1.35134  -0.75378 
 Bq                    2.60152  -1.35134   0.75378 
 Bq                    2.60152  -0.07214  -0.75378 
 Bq                    2.60152  -0.07214   0.75378 
 Bq                    2.64585  -0.71174  -0.98079 
 Bq                    2.64585  -0.71174   0.98079 
 Bq                    2.73944  -1.11999  -0.86603 
 Bq                    2.73944  -1.11999   0.86603 
 Bq                    2.73944  -0.30349  -0.86603 
 Bq                    2.73944  -0.30349   0.86603 
 Bq                    2.79421  -0.92059  -0.91566 
 Bq                    2.79421  -0.92059   0.91566 
 Bq                    2.79421  -0.50289  -0.91566 
 Bq                    2.79421  -0.50289   0.91566 
 Bq                    2.83344  -0.71174  -0.92388 
 Bq                    2.83344  -0.71174   0.92388 
 Bq                    2.85901  -0.13439  -0.70711 
 Bq                    2.85901  -0.13439   0.70711 
 Bq                    2.93263  -0.30712  -0.77723 
 Bq                    2.93263  -0.30712   0.77723 
 Bq                    2.95076  -0.00463  -0.5 
 Bq                    2.95076  -0.00463   0.5 
 Bq                    2.98882  -0.51298  -0.81914 
 Bq                    2.98882  -0.51298   0.81914 
 Bq                    3.00633  -0.71174  -0.83147 
 Bq                    3.00633  -0.71174   0.83147 
 Bq                    3.0387   -0.15617  -0.58794 
 Bq                    3.0387   -0.15617   0.58794 
 Bq                    3.10404  -0.32906  -0.65328 
 Bq                    3.10404  -0.32906   0.65328 
 Bq                    3.14428  -0.51665  -0.69352 
 Bq                    3.14428  -0.51665   0.69352 
 Bq                    3.15787  -0.13439  -0.40825 
 Bq                    3.15787  -0.13439   0.40825 
 Bq                    3.20454  -0.07214  -0.15076 
 Bq                    3.20454  -0.07214   0.15076 
 Bq                    3.22799  -0.30712  -0.48187 
 Bq                    3.22799  -0.30712   0.48187 
 Bq                    3.31679  -0.30349  -0.28868 
 Bq                    3.31679  -0.30349   0.28868 
 Bq                    1.74365   0.71174  -0.70711 
 Bq                    1.74365   0.71174   0.70711 
 Bq                    1.75724   0.51665  -0.69352 
 Bq                    1.75724   0.51665   0.69352 
 Bq                    1.89519   0.71174  -0.83147 
 Bq                    1.89519   0.71174   0.83147 
 Bq                    1.9127    0.51298  -0.81914 
 Bq                    1.9127    0.51298   0.81914 
 Bq                    1.9127    0.9105   -0.81914 
 Bq                    1.9127    0.9105    0.81914 
 Bq                    1.96889   0.30712  -0.77723 
 Bq                    1.96889   0.30712   0.77723 
 Bq                    1.96889   1.11636  -0.77723 
 Bq                    1.96889   1.11636   0.77723 
 Bq                    2.04251   0.13439  -0.70711 
 Bq                    2.04251   0.13439   0.70711 
 Bq                    2.04251   1.28909  -0.70711 
 Bq                    2.04251   1.28909   0.70711 
 Bq                    2.06808   0.71174  -0.92388 
 Bq                    2.06808   0.71174   0.92388 
 Bq                    2.10731   0.50289  -0.91566 
 Bq                    2.10731   0.50289   0.91566 
 Bq                    2.10731   0.92059  -0.91566 
 Bq                    2.10731   0.92059   0.91566 
 Bq                    2.16208   0.30349  -0.86603 
 Bq                    2.16208   0.30349   0.86603 
 Bq                    2.16208   1.11999  -0.86603 
 Bq                    2.16208   1.11999   0.86603 
 Bq                    2.19194   1.50042  -0.55768 
 Bq                    2.19194   1.50042   0.55768 
 Bq                    2.25567   0.71174  -0.98079 
 Bq                    2.25567   0.71174   0.98079 
 Bq                    2.3       0.07214  -0.75378 
 Bq                    2.3       0.07214   0.75378 
 Bq                    2.3       1.35134  -0.75378 
 Bq                    2.3       1.35134   0.75378 
 Bq                    2.30133   0.50042  -0.96593 
 Bq                    2.30133   0.50042   0.96593 
 Bq                    2.30133   0.92306  -0.96593 
 Bq                    2.30133   0.92306   0.96593 
 Bq                    2.31233   1.60206  -0.43378 
 Bq                    2.31233   1.60206   0.43378 
 Bq                    2.31281   1.69253  -0.13795 
 Bq                    2.31281   1.69253   0.13795 
 Bq                    2.45076   0.28534  -0.90453 
 Bq                    2.45076   0.28534   0.90453 
 Bq                    2.45076   0.71174  -1. 
 Bq                    2.45076   0.71174   1. 
 Bq                    2.45076   1.13814  -0.90453 
 Bq                    2.45076   1.13814   0.90453 
 Bq                    2.45076   1.52824  -0.57735 
 Bq                    2.45076   1.52824   0.57735 
 Bq                    2.45076   1.67142  -0.28108 
 Bq                    2.45076   1.67142   0.28108 
 Bq                    2.45076   1.71174   0. 
 Bq                    2.60019   0.50042  -0.96593 
 Bq                    2.60019   0.50042   0.96593 
 Bq                    2.60019   0.92306  -0.96593 
 Bq                    2.60019   0.92306   0.96593 
 Bq                    2.60152   0.07214  -0.75378 
 Bq                    2.60152   0.07214   0.75378 
 Bq                    2.60152   1.35134  -0.75378 
 Bq                    2.60152   1.35134   0.75378 
 Bq                    2.64585   0.71174  -0.98079 
 Bq                    2.64585   0.71174   0.98079 
 Bq                    2.73944   0.30349  -0.86603 
 Bq                    2.73944   0.30349   0.86603 
 Bq                    2.73944   1.11999  -0.86603 
 Bq                    2.73944   1.11999   0.86603 
 Bq                    2.79421   0.50289  -0.91566 
 Bq                    2.79421   0.50289   0.91566 
 Bq                    2.79421   0.92059  -0.91566 
 Bq                    2.79421   0.92059   0.91566 
 Bq                    2.83344   0.71174  -0.92388 
 Bq                    2.83344   0.71174   0.92388 
 Bq                    2.85901   0.13439  -0.70711 
 Bq                    2.85901   0.13439   0.70711 
 Bq                    2.93263   0.30712  -0.77723 
 Bq                    2.93263   0.30712   0.77723 
 Bq                    2.95076   0.00463  -0.5 
 Bq                    2.95076   0.00463   0.5 
 Bq                    2.98882   0.51298  -0.81914 
 Bq                    2.98882   0.51298   0.81914 
 Bq                    3.00633   0.71174  -0.83147 
 Bq                    3.00633   0.71174   0.83147 
 Bq                    3.0387    0.15617  -0.58794 
 Bq                    3.0387    0.15617   0.58794 
 Bq                    3.10404   0.32906  -0.65328 
 Bq                    3.10404   0.32906   0.65328 
 Bq                    3.14428   0.51665  -0.69352 
 Bq                    3.14428   0.51665   0.69352 
 Bq                    3.15787   0.13439  -0.40825 
 Bq                    3.15787   0.13439   0.40825 
 Bq                    3.20454   0.07214  -0.15076 
 Bq                    3.20454   0.07214   0.15076 
 Bq                    3.22799   0.30712  -0.48187 
 Bq                    3.22799   0.30712   0.48187 
 Bq                    3.31679   0.30349  -0.28868 
 Bq                    3.31679   0.30349   0.28868 
 Bq                    0.33573   1.62022  -0.34345 
 Bq                    0.33573   1.62022   0.34345 
 Bq                    0.34686   1.83777   0. 
 Bq                    0.38536   1.81962  -0.28868 
 Bq                    0.38536   1.81962   0.28868 
 Bq                    0.43225   1.61013  -0.53806 
 Bq                    0.43225   1.61013   0.53806 
 Bq                    0.47416   1.81599  -0.48187 
 Bq                    0.47416   1.81599   0.48187 
 Bq                    0.54428   1.41137  -0.70711 
 Bq                    0.54428   1.41137   0.70711 
 Bq                    0.55787   1.21628  -0.69352 
 Bq                    0.55787   1.21628   0.69352 
 Bq                    0.55787   1.60646  -0.69352 
 Bq                    0.55787   1.60646   0.69352 
 Bq                    0.59811   1.79405  -0.65328 
 Bq                    0.59811   1.79405   0.65328 
 Bq                    0.69582   1.41137  -0.83147 
 Bq                    0.69582   1.41137   0.83147 
 Bq                    0.71333   1.21261  -0.81914 
 Bq                    0.71333   1.21261   0.81914 
 Bq                    0.71333   1.61013  -0.81914 
 Bq                    0.71333   1.61013   0.81914 
 Bq                    0.76952   1.00675  -0.77723 
 Bq                    0.76952   1.00675   0.77723 
 Bq                    0.76952   1.81599  -0.77723 
 Bq                    0.76952   1.81599   0.77723 
 Bq                    0.84314   0.83402  -0.70711 
 Bq                    0.84314   0.83402   0.70711 
 Bq                    0.86871   1.41137  -0.92388 
 Bq                    0.86871   1.41137   0.92388 
 Bq                    0.90794   1.20252  -0.91566 
 Bq                    0.90794   1.20252   0.91566 
 Bq                    0.90794   1.62022  -0.91566 
 Bq                    0.90794   1.62022   0.91566 
 Bq                    0.96271   1.00312  -0.86603 
 Bq                    0.96271   1.00312   0.86603 
 Bq                    0.96271   1.81962  -0.86603 
 Bq                    0.96271   1.81962   0.86603 
 Bq                    1.0563    1.41137  -0.98079 
 Bq                    1.0563    1.41137   0.98079 
 Bq                    1.10063   0.77177  -0.75378 
 Bq                    1.10063   0.77177   0.75378 
 Bq                    1.10196   1.20005  -0.96593 
 Bq                    1.10196   1.20005   0.96593 
 Bq                    1.10196   1.62269  -0.96593 
 Bq                    1.10196   1.62269   0.96593 
 Bq                    1.25139   0.98497  -0.90453 
 Bq                    1.25139   0.98497   0.90453 
 Bq                    1.25139   1.41137  -1. 
 Bq                    1.25139   1.41137   1. 
 Bq                    1.25139   1.83777  -0.90453 
 Bq                    1.25139   1.83777   0.90453 
 Bq                    1.40082   1.20005  -0.96593 
 Bq                    1.40082   1.20005   0.96593 
 Bq                    1.40082   1.62269  -0.96593 
 Bq                    1.40082   1.62269   0.96593 
 Bq                    1.40215   0.77177  -0.75378 
 Bq                    1.40215   0.77177   0.75378 
 Bq                    1.44648   1.41137  -0.98079 
 Bq                    1.44648   1.41137   0.98079 
 Bq                    1.54007   1.00312  -0.86603 
 Bq                    1.54007   1.00312   0.86603 
 Bq                    1.54007   1.81962  -0.86603 
 Bq                    1.54007   1.81962   0.86603 
 Bq                    1.59484   1.20252  -0.91566 
 Bq                    1.59484   1.20252   0.91566 
 Bq                    1.59484   1.62022  -0.91566 
 Bq                    1.59484   1.62022   0.91566 
 Bq                    1.63407   1.41137  -0.92388 
 Bq                    1.63407   1.41137   0.92388 
 Bq                    1.65964   0.83402  -0.70711 
 Bq                    1.65964   0.83402   0.70711 
 Bq                    1.73326   1.00675  -0.77723 
 Bq                    1.73326   1.00675   0.77723 
 Bq                    1.73326   1.81599  -0.77723 
 Bq                    1.73326   1.81599   0.77723 
 Bq                    1.78945   1.21261  -0.81914 
 Bq                    1.78945   1.21261   0.81914 
 Bq                    1.78945   1.61013  -0.81914 
 Bq                    1.78945   1.61013   0.81914 
 Bq                    1.80696   1.41137  -0.83147 
 Bq                    1.80696   1.41137   0.83147 
 Bq                    1.90467   1.79405  -0.65328 
 Bq                    1.90467   1.79405   0.65328 
 Bq                    1.94491   1.60646  -0.69352 
 Bq                    1.94491   1.60646   0.69352 
 Bq                    1.9585    1.41137  -0.70711 
 Bq                    1.9585    1.41137   0.70711 
 Bq                    2.02862   1.81599  -0.48187 
 Bq                    2.02862   1.81599   0.48187 
 Bq                    2.07053   1.61013  -0.53806 
 Bq                    2.07053   1.61013   0.53806 
 Bq                    2.11742   1.81962  -0.28868 
 Bq                    2.11742   1.81962   0.28868 
 Bq                    2.15592   1.83777   0. 
 Bq                    2.16705   1.62022  -0.34345 
 Bq                    2.16705   1.62022   0.34345 
 Bq                   -0.70711   0.72289  -0.70711 
 Bq                   -0.70711   0.72289   0.70711 
 Bq                   -0.69352   0.5278   -0.69352 
 Bq                   -0.69352   0.5278    0.69352 
 Bq                   -0.69352   0.91798  -0.69352 
 Bq                   -0.69352   0.91798   0.69352 
 Bq                   -0.55557   0.72289  -0.83147 
 Bq                   -0.55557   0.72289   0.83147 
 Bq                   -0.53806   0.52413  -0.81914 
 Bq                   -0.53806   0.52413   0.81914 
 Bq                   -0.53806   0.92165  -0.81914 
 Bq                   -0.53806   0.92165   0.81914 
 Bq                   -0.48187   0.31827  -0.77723 
 Bq                   -0.48187   0.31827   0.77723 
 Bq                   -0.48187   1.12751  -0.77723 
 Bq                   -0.48187   1.12751   0.77723 
 Bq                   -0.40825   0.14554  -0.70711 
 Bq                   -0.40825   0.14554   0.70711 
 Bq                   -0.40825   1.30024  -0.70711 
 Bq                   -0.40825   1.30024   0.70711 
 Bq                   -0.38268   0.72289  -0.92388 
 Bq                   -0.38268   0.72289   0.92388 
 Bq                   -0.34345   0.51404  -0.91566 
 Bq                   -0.34345   0.51404   0.91566 
 Bq                   -0.34345   0.93174  -0.91566 
 Bq                   -0.34345   0.93174   0.91566 
 Bq                   -0.28868   0.31464  -0.86603 
 Bq                   -0.28868   0.31464   0.86603 
 Bq                   -0.28868   1.13114  -0.86603 
 Bq                   -0.28868   1.13114   0.86603 
 Bq                   -0.28108   1.68257   0. 
 Bq                   -0.2706    1.64677  -0.2706 
 Bq                   -0.2706    1.64677   0.2706 
 Bq                   -0.25882   1.51157  -0.55768 
 Bq                   -0.25882   1.51157   0.55768 
 Bq                   -0.19509   0.72289  -0.98079 
 Bq                   -0.19509   0.72289   0.98079 
 Bq                   -0.15076   0.08329  -0.75378 
 Bq                   -0.15076   0.08329   0.75378 
 Bq                   -0.15076   1.36249  -0.75378 
 Bq                   -0.15076   1.36249   0.75378 
 Bq                   -0.14943   0.51157  -0.96593 
 Bq                   -0.14943   0.51157   0.96593 
 Bq                   -0.14943   0.93421  -0.96593 
 Bq                   -0.14943   0.93421   0.96593 
 Bq                   -0.13843   1.61321  -0.43378 
 Bq                   -0.13843   1.61321   0.43378 
 Bq                   -0.13795   1.70368  -0.13795 
 Bq                   -0.13795   1.70368   0.13795 
 Bq                    0.        0.29649  -0.90453 
 Bq                    0.        0.29649   0.90453 
 Bq                    0.        0.72289  -1. 
 Bq                    0.        0.72289   1. 
 Bq                    0.        1.14929  -0.90453 
 Bq                    0.        1.14929   0.90453 
 Bq                    0.        1.53939  -0.57735 
 Bq                    0.        1.53939   0.57735 
 Bq                    0.        1.68257  -0.28108 
 Bq                    0.        1.68257   0.28108 
 Bq                    0.        1.72289   0. 
 Bq                    0.13795   1.70368  -0.13795 
 Bq                    0.13795   1.70368   0.13795 
 Bq                    0.13843   1.61321  -0.43378 
 Bq                    0.13843   1.61321   0.43378 
 Bq                    0.14943   0.51157  -0.96593 
 Bq                    0.14943   0.51157   0.96593 
 Bq                    0.14943   0.93421  -0.96593 
 Bq                    0.14943   0.93421   0.96593 
 Bq                    0.15076   0.08329  -0.75378 
 Bq                    0.15076   0.08329   0.75378 
 Bq                    0.15076   1.36249  -0.75378 
 Bq                    0.15076   1.36249   0.75378 
 Bq                    0.19509   0.72289  -0.98079 
 Bq                    0.19509   0.72289   0.98079 
 Bq                    0.25882   1.51157  -0.55768 
 Bq                    0.25882   1.51157   0.55768 
 Bq                    0.2706    1.64677  -0.2706 
 Bq                    0.2706    1.64677   0.2706 
 Bq                    0.28108   1.68257   0. 
 Bq                    0.28868   0.31464  -0.86603 
 Bq                    0.28868   0.31464   0.86603 
 Bq                    0.28868   1.13114  -0.86603 
 Bq                    0.28868   1.13114   0.86603 
 Bq                    0.34345   0.51404  -0.91566 
 Bq                    0.34345   0.51404   0.91566 
 Bq                    0.34345   0.93174  -0.91566 
 Bq                    0.34345   0.93174   0.91566 
 Bq                    0.38268   0.72289  -0.92388 
 Bq                    0.38268   0.72289   0.92388 
 Bq                    0.40825   0.14554  -0.70711 
 Bq                    0.40825   0.14554   0.70711 
 Bq                    0.40825   1.30024  -0.70711 
 Bq                    0.40825   1.30024   0.70711 
 Bq                    0.48187   0.31827  -0.77723 
 Bq                    0.48187   0.31827   0.77723 
 Bq                    0.48187   1.12751  -0.77723 
 Bq                    0.48187   1.12751   0.77723 
 Bq                    0.53806   0.52413  -0.81914 
 Bq                    0.53806   0.52413   0.81914 
 Bq                    0.53806   0.92165  -0.81914 
 Bq                    0.53806   0.92165   0.81914 
 Bq                    0.55557   0.72289  -0.83147 
 Bq                    0.55557   0.72289   0.83147 
 Bq                    0.69352   0.5278   -0.69352 
 Bq                    0.69352   0.5278    0.69352 
 Bq                    0.69352   0.91798  -0.69352 
 Bq                    0.69352   0.91798   0.69352 
 Bq                    0.70711   0.72289  -0.70711 
 Bq                    0.70711   0.72289   0.70711 
 Bq                   -2.16705   1.62022  -0.34345 
 Bq                   -2.16705   1.62022   0.34345 
 Bq                   -2.15592   1.83777   0. 
 Bq                   -2.11742   1.81962  -0.28868 
 Bq                   -2.11742   1.81962   0.28868 
 Bq                   -2.07053   1.61013  -0.53806 
 Bq                   -2.07053   1.61013   0.53806 
 Bq                   -2.02862   1.81599  -0.48187 
 Bq                   -2.02862   1.81599   0.48187 
 Bq                   -1.9585    1.41137  -0.70711 
 Bq                   -1.9585    1.41137   0.70711 
 Bq                   -1.94491   1.60646  -0.69352 
 Bq                   -1.94491   1.60646   0.69352 
 Bq                   -1.90467   1.79405  -0.65328 
 Bq                   -1.90467   1.79405   0.65328 
 Bq                   -1.80696   1.41137  -0.83147 
 Bq                   -1.80696   1.41137   0.83147 
 Bq                   -1.78945   1.21261  -0.81914 
 Bq                   -1.78945   1.21261   0.81914 
 Bq                   -1.78945   1.61013  -0.81914 
 Bq                   -1.78945   1.61013   0.81914 
 Bq                   -1.73326   1.00675  -0.77723 
 Bq                   -1.73326   1.00675   0.77723 
 Bq                   -1.73326   1.81599  -0.77723 
 Bq                   -1.73326   1.81599   0.77723 
 Bq                   -1.65964   0.83402  -0.70711 
 Bq                   -1.65964   0.83402   0.70711 
 Bq                   -1.63407   1.41137  -0.92388 
 Bq                   -1.63407   1.41137   0.92388 
 Bq                   -1.59484   1.20252  -0.91566 
 Bq                   -1.59484   1.20252   0.91566 
 Bq                   -1.59484   1.62022  -0.91566 
 Bq                   -1.59484   1.62022   0.91566 
 Bq                   -1.54007   1.00312  -0.86603 
 Bq                   -1.54007   1.00312   0.86603 
 Bq                   -1.54007   1.81962  -0.86603 
 Bq                   -1.54007   1.81962   0.86603 
 Bq                   -1.44648   1.41137  -0.98079 
 Bq                   -1.44648   1.41137   0.98079 
 Bq                   -1.40215   0.77177  -0.75378 
 Bq                   -1.40215   0.77177   0.75378 
 Bq                   -1.40082   1.20005  -0.96593 
 Bq                   -1.40082   1.20005   0.96593 
 Bq                   -1.40082   1.62269  -0.96593 
 Bq                   -1.40082   1.62269   0.96593 
 Bq                   -1.25139   0.98497  -0.90453 
 Bq                   -1.25139   0.98497   0.90453 
 Bq                   -1.25139   1.41137  -1. 
 Bq                   -1.25139   1.41137   1. 
 Bq                   -1.25139   1.83777  -0.90453 
 Bq                   -1.25139   1.83777   0.90453 
 Bq                   -1.10196   1.20005  -0.96593 
 Bq                   -1.10196   1.20005   0.96593 
 Bq                   -1.10196   1.62269  -0.96593 
 Bq                   -1.10196   1.62269   0.96593 
 Bq                   -1.10063   0.77177  -0.75378 
 Bq                   -1.10063   0.77177   0.75378 
 Bq                   -1.0563    1.41137  -0.98079 
 Bq                   -1.0563    1.41137   0.98079 
 Bq                   -0.96271   1.00312  -0.86603 
 Bq                   -0.96271   1.00312   0.86603 
 Bq                   -0.96271   1.81962  -0.86603 
 Bq                   -0.96271   1.81962   0.86603 
 Bq                   -0.90794   1.20252  -0.91566 
 Bq                   -0.90794   1.20252   0.91566 
 Bq                   -0.90794   1.62022  -0.91566 
 Bq                   -0.90794   1.62022   0.91566 
 Bq                   -0.86871   1.41137  -0.92388 
 Bq                   -0.86871   1.41137   0.92388 
 Bq                   -0.84314   0.83402  -0.70711 
 Bq                   -0.84314   0.83402   0.70711 
 Bq                   -0.76952   1.00675  -0.77723 
 Bq                   -0.76952   1.00675   0.77723 
 Bq                   -0.76952   1.81599  -0.77723 
 Bq                   -0.76952   1.81599   0.77723 
 Bq                   -0.71333   1.21261  -0.81914 
 Bq                   -0.71333   1.21261   0.81914 
 Bq                   -0.71333   1.61013  -0.81914 
 Bq                   -0.71333   1.61013   0.81914 
 Bq                   -0.69582   1.41137  -0.83147 
 Bq                   -0.69582   1.41137   0.83147 
 Bq                   -0.59811   1.79405  -0.65328 
 Bq                   -0.59811   1.79405   0.65328 
 Bq                   -0.55787   1.21628  -0.69352 
 Bq                   -0.55787   1.21628   0.69352 
 Bq                   -0.55787   1.60646  -0.69352 
 Bq                   -0.55787   1.60646   0.69352 
 Bq                   -0.54428   1.41137  -0.70711 
 Bq                   -0.54428   1.41137   0.70711 
 Bq                   -0.47416   1.81599  -0.48187 
 Bq                   -0.47416   1.81599   0.48187 
 Bq                   -0.43225   1.61013  -0.53806 
 Bq                   -0.43225   1.61013   0.53806 
 Bq                   -0.38536   1.81962  -0.28868 
 Bq                   -0.38536   1.81962   0.28868 
 Bq                   -0.34686   1.83777   0. 
 Bq                   -0.33573   1.62022  -0.34345 
 Bq                   -0.33573   1.62022   0.34345 
 Bq                   -3.31679   0.30349  -0.28868 
 Bq                   -3.31679   0.30349   0.28868 
 Bq                   -3.22799   0.30712  -0.48187 
 Bq                   -3.22799   0.30712   0.48187 
 Bq                   -3.20454   0.07214  -0.15076 
 Bq                   -3.20454   0.07214   0.15076 
 Bq                   -3.15787   0.13439  -0.40825 
 Bq                   -3.15787   0.13439   0.40825 
 Bq                   -3.14428   0.51665  -0.69352 
 Bq                   -3.14428   0.51665   0.69352 
 Bq                   -3.10404   0.32906  -0.65328 
 Bq                   -3.10404   0.32906   0.65328 
 Bq                   -3.0387    0.15617  -0.58794 
 Bq                   -3.0387    0.15617   0.58794 
 Bq                   -3.00633   0.71174  -0.83147 
 Bq                   -3.00633   0.71174   0.83147 
 Bq                   -2.98882   0.51298  -0.81914 
 Bq                   -2.98882   0.51298   0.81914 
 Bq                   -2.95076   0.00463  -0.5 
 Bq                   -2.95076   0.00463   0.5 
 Bq                   -2.93263   0.30712  -0.77723 
 Bq                   -2.93263   0.30712   0.77723 
 Bq                   -2.85901   0.13439  -0.70711 
 Bq                   -2.85901   0.13439   0.70711 
 Bq                   -2.83344   0.71174  -0.92388 
 Bq                   -2.83344   0.71174   0.92388 
 Bq                   -2.79421   0.50289  -0.91566 
 Bq                   -2.79421   0.50289   0.91566 
 Bq                   -2.79421   0.92059  -0.91566 
 Bq                   -2.79421   0.92059   0.91566 
 Bq                   -2.73944   0.30349  -0.86603 
 Bq                   -2.73944   0.30349   0.86603 
 Bq                   -2.73944   1.11999  -0.86603 
 Bq                   -2.73944   1.11999   0.86603 
 Bq                   -2.64585   0.71174  -0.98079 
 Bq                   -2.64585   0.71174   0.98079 
 Bq                   -2.60152   0.07214  -0.75378 
 Bq                   -2.60152   0.07214   0.75378 
 Bq                   -2.60152   1.35134  -0.75378 
 Bq                   -2.60152   1.35134   0.75378 
 Bq                   -2.60019   0.50042  -0.96593 
 Bq                   -2.60019   0.50042   0.96593 
 Bq                   -2.60019   0.92306  -0.96593 
 Bq                   -2.60019   0.92306   0.96593 
 Bq                   -2.45076   0.28534  -0.90453 
 Bq                   -2.45076   0.28534   0.90453 
 Bq                   -2.45076   0.71174  -1. 
 Bq                   -2.45076   0.71174   1. 
 Bq                   -2.45076   1.13814  -0.90453 
 Bq                   -2.45076   1.13814   0.90453 
 Bq                   -2.45076   1.52824  -0.57735 
 Bq                   -2.45076   1.52824   0.57735 
 Bq                   -2.45076   1.67142  -0.28108 
 Bq                   -2.45076   1.67142   0.28108 
 Bq                   -2.45076   1.71174   0. 
 Bq                   -2.31281   1.69253  -0.13795 
 Bq                   -2.31281   1.69253   0.13795 
 Bq                   -2.31233   1.60206  -0.43378 
 Bq                   -2.31233   1.60206   0.43378 
 Bq                   -2.30133   0.50042  -0.96593 
 Bq                   -2.30133   0.50042   0.96593 
 Bq                   -2.30133   0.92306  -0.96593 
 Bq                   -2.30133   0.92306   0.96593 
 Bq                   -2.3       0.07214  -0.75378 
 Bq                   -2.3       0.07214   0.75378 
 Bq                   -2.3       1.35134  -0.75378 
 Bq                   -2.3       1.35134   0.75378 
 Bq                   -2.25567   0.71174  -0.98079 
 Bq                   -2.25567   0.71174   0.98079 
 Bq                   -2.19194   1.50042  -0.55768 
 Bq                   -2.19194   1.50042   0.55768 
 Bq                   -2.16208   0.30349  -0.86603 
 Bq                   -2.16208   0.30349   0.86603 
 Bq                   -2.16208   1.11999  -0.86603 
 Bq                   -2.16208   1.11999   0.86603 
 Bq                   -2.10731   0.50289  -0.91566 
 Bq                   -2.10731   0.50289   0.91566 
 Bq                   -2.10731   0.92059  -0.91566 
 Bq                   -2.10731   0.92059   0.91566 
 Bq                   -2.06808   0.71174  -0.92388 
 Bq                   -2.06808   0.71174   0.92388 
 Bq                   -2.04251   0.13439  -0.70711 
 Bq                   -2.04251   0.13439   0.70711 
 Bq                   -2.04251   1.28909  -0.70711 
 Bq                   -2.04251   1.28909   0.70711 
 Bq                   -1.96889   0.30712  -0.77723 
 Bq                   -1.96889   0.30712   0.77723 
 Bq                   -1.96889   1.11636  -0.77723 
 Bq                   -1.96889   1.11636   0.77723 
 Bq                   -1.9127    0.51298  -0.81914 
 Bq                   -1.9127    0.51298   0.81914 
 Bq                   -1.9127    0.9105   -0.81914 
 Bq                   -1.9127    0.9105    0.81914 
 Bq                   -1.89519   0.71174  -0.83147 
 Bq                   -1.89519   0.71174   0.83147 
 Bq                   -1.75724   0.51665  -0.69352 
 Bq                   -1.75724   0.51665   0.69352 
 Bq                   -1.74365   0.71174  -0.70711 
 Bq                   -1.74365   0.71174   0.70711 
 Bq                   -3.31679  -0.30349  -0.28868 
 Bq                   -3.31679  -0.30349   0.28868 
 Bq                   -3.22799  -0.30712  -0.48187 
 Bq                   -3.22799  -0.30712   0.48187 
 Bq                   -3.20454  -0.07214  -0.15076 
 Bq                   -3.20454  -0.07214   0.15076 
 Bq                   -3.15787  -0.13439  -0.40825 
 Bq                   -3.15787  -0.13439   0.40825 
 Bq                   -3.14428  -0.51665  -0.69352 
 Bq                   -3.14428  -0.51665   0.69352 
 Bq                   -3.10404  -0.32906  -0.65328 
 Bq                   -3.10404  -0.32906   0.65328 
 Bq                   -3.0387   -0.15617  -0.58794 
 Bq                   -3.0387   -0.15617   0.58794 
 Bq                   -3.00633  -0.71174  -0.83147 
 Bq                   -3.00633  -0.71174   0.83147 
 Bq                   -2.98882  -0.51298  -0.81914 
 Bq                   -2.98882  -0.51298   0.81914 
 Bq                   -2.95076  -0.00463  -0.5 
 Bq                   -2.95076  -0.00463   0.5 
 Bq                   -2.93263  -0.30712  -0.77723 
 Bq                   -2.93263  -0.30712   0.77723 
 Bq                   -2.85901  -0.13439  -0.70711 
 Bq                   -2.85901  -0.13439   0.70711 
 Bq                   -2.83344  -0.71174  -0.92388 
 Bq                   -2.83344  -0.71174   0.92388 
 Bq                   -2.79421  -0.92059  -0.91566 
 Bq                   -2.79421  -0.92059   0.91566 
 Bq                   -2.79421  -0.50289  -0.91566 
 Bq                   -2.79421  -0.50289   0.91566 
 Bq                   -2.73944  -1.11999  -0.86603 
 Bq                   -2.73944  -1.11999   0.86603 
 Bq                   -2.73944  -0.30349  -0.86603 
 Bq                   -2.73944  -0.30349   0.86603 
 Bq                   -2.64585  -0.71174  -0.98079 
 Bq                   -2.64585  -0.71174   0.98079 
 Bq                   -2.60152  -1.35134  -0.75378 
 Bq                   -2.60152  -1.35134   0.75378 
 Bq                   -2.60152  -0.07214  -0.75378 
 Bq                   -2.60152  -0.07214   0.75378 
 Bq                   -2.60019  -0.92306  -0.96593 
 Bq                   -2.60019  -0.92306   0.96593 
 Bq                   -2.60019  -0.50042  -0.96593 
 Bq                   -2.60019  -0.50042   0.96593 
 Bq                   -2.45076  -1.71174   0. 
 Bq                   -2.45076  -1.67142  -0.28108 
 Bq                   -2.45076  -1.67142   0.28108 
 Bq                   -2.45076  -1.52824  -0.57735 
 Bq                   -2.45076  -1.52824   0.57735 
 Bq                   -2.45076  -1.13814  -0.90453 
 Bq                   -2.45076  -1.13814   0.90453 
 Bq                   -2.45076  -0.71174  -1. 
 Bq                   -2.45076  -0.71174   1. 
 Bq                   -2.45076  -0.28534  -0.90453 
 Bq                   -2.45076  -0.28534   0.90453 
 Bq                   -2.31281  -1.69253  -0.13795 
 Bq                   -2.31281  -1.69253   0.13795 
 Bq                   -2.31233  -1.60206  -0.43378 
 Bq                   -2.31233  -1.60206   0.43378 
 Bq                   -2.30133  -0.92306  -0.96593 
 Bq                   -2.30133  -0.92306   0.96593 
 Bq                   -2.30133  -0.50042  -0.96593 
 Bq                   -2.30133  -0.50042   0.96593 
 Bq                   -2.3      -1.35134  -0.75378 
 Bq                   -2.3      -1.35134   0.75378 
 Bq                   -2.3      -0.07214  -0.75378 
 Bq                   -2.3      -0.07214   0.75378 
 Bq                   -2.25567  -0.71174  -0.98079 
 Bq                   -2.25567  -0.71174   0.98079 
 Bq                   -2.19194  -1.50042  -0.55768 
 Bq                   -2.19194  -1.50042   0.55768 
 Bq                   -2.16208  -1.11999  -0.86603 
 Bq                   -2.16208  -1.11999   0.86603 
 Bq                   -2.16208  -0.30349  -0.86603 
 Bq                   -2.16208  -0.30349   0.86603 
 Bq                   -2.10731  -0.92059  -0.91566 
 Bq                   -2.10731  -0.92059   0.91566 
 Bq                   -2.10731  -0.50289  -0.91566 
 Bq                   -2.10731  -0.50289   0.91566 
 Bq                   -2.06808  -0.71174  -0.92388 
 Bq                   -2.06808  -0.71174   0.92388 
 Bq                   -2.04251  -1.28909  -0.70711 
 Bq                   -2.04251  -1.28909   0.70711 
 Bq                   -2.04251  -0.13439  -0.70711 
 Bq                   -2.04251  -0.13439   0.70711 
 Bq                   -1.96889  -1.11636  -0.77723 
 Bq                   -1.96889  -1.11636   0.77723 
 Bq                   -1.96889  -0.30712  -0.77723 
 Bq                   -1.96889  -0.30712   0.77723 
 Bq                   -1.9127   -0.9105   -0.81914 
 Bq                   -1.9127   -0.9105    0.81914 
 Bq                   -1.9127   -0.51298  -0.81914 
 Bq                   -1.9127   -0.51298   0.81914 
 Bq                   -1.89519  -0.71174  -0.83147 
 Bq                   -1.89519  -0.71174   0.83147 
 Bq                   -1.75724  -0.51665  -0.69352 
 Bq                   -1.75724  -0.51665   0.69352 
 Bq                   -1.74365  -0.71174  -0.70711 
 Bq                   -1.74365  -0.71174   0.70711 
 Bq                   -2.16705  -1.62022  -0.34345 
 Bq                   -2.16705  -1.62022   0.34345 
 Bq                   -2.15592  -1.83777   0. 
 Bq                   -2.11742  -1.81962  -0.28868 
 Bq                   -2.11742  -1.81962   0.28868 
 Bq                   -2.07053  -1.61013  -0.53806 
 Bq                   -2.07053  -1.61013   0.53806 
 Bq                   -2.02862  -1.81599  -0.48187 
 Bq                   -2.02862  -1.81599   0.48187 
 Bq                   -1.9585   -1.41137  -0.70711 
 Bq                   -1.9585   -1.41137   0.70711 
 Bq                   -1.94491  -1.60646  -0.69352 
 Bq                   -1.94491  -1.60646   0.69352 
 Bq                   -1.90467  -1.79405  -0.65328 
 Bq                   -1.90467  -1.79405   0.65328 
 Bq                   -1.80696  -1.41137  -0.83147 
 Bq                   -1.80696  -1.41137   0.83147 
 Bq                   -1.78945  -1.61013  -0.81914 
 Bq                   -1.78945  -1.61013   0.81914 
 Bq                   -1.78945  -1.21261  -0.81914 
 Bq                   -1.78945  -1.21261   0.81914 
 Bq                   -1.73326  -1.81599  -0.77723 
 Bq                   -1.73326  -1.81599   0.77723 
 Bq                   -1.73326  -1.00675  -0.77723 
 Bq                   -1.73326  -1.00675   0.77723 
 Bq                   -1.65964  -0.83402  -0.70711 
 Bq                   -1.65964  -0.83402   0.70711 
 Bq                   -1.63407  -1.41137  -0.92388 
 Bq                   -1.63407  -1.41137   0.92388 
 Bq                   -1.59484  -1.62022  -0.91566 
 Bq                   -1.59484  -1.62022   0.91566 
 Bq                   -1.59484  -1.20252  -0.91566 
 Bq                   -1.59484  -1.20252   0.91566 
 Bq                   -1.54007  -1.81962  -0.86603 
 Bq                   -1.54007  -1.81962   0.86603 
 Bq                   -1.54007  -1.00312  -0.86603 
 Bq                   -1.54007  -1.00312   0.86603 
 Bq                   -1.44648  -1.41137  -0.98079 
 Bq                   -1.44648  -1.41137   0.98079 
 Bq                   -1.40215  -0.77177  -0.75378 
 Bq                   -1.40215  -0.77177   0.75378 
 Bq                   -1.40082  -1.62269  -0.96593 
 Bq                   -1.40082  -1.62269   0.96593 
 Bq                   -1.40082  -1.20005  -0.96593 
 Bq                   -1.40082  -1.20005   0.96593 
 Bq                   -1.25139  -1.83777  -0.90453 
 Bq                   -1.25139  -1.83777   0.90453 
 Bq                   -1.25139  -1.41137  -1. 
 Bq                   -1.25139  -1.41137   1. 
 Bq                   -1.25139  -0.98497  -0.90453 
 Bq                   -1.25139  -0.98497   0.90453 
 Bq                   -1.10196  -1.62269  -0.96593 
 Bq                   -1.10196  -1.62269   0.96593 
 Bq                   -1.10196  -1.20005  -0.96593 
 Bq                   -1.10196  -1.20005   0.96593 
 Bq                   -1.10063  -0.77177  -0.75378 
 Bq                   -1.10063  -0.77177   0.75378 
 Bq                   -1.0563   -1.41137  -0.98079 
 Bq                   -1.0563   -1.41137   0.98079 
 Bq                   -0.96271  -1.81962  -0.86603 
 Bq                   -0.96271  -1.81962   0.86603 
 Bq                   -0.96271  -1.00312  -0.86603 
 Bq                   -0.96271  -1.00312   0.86603 
 Bq                   -0.90794  -1.62022  -0.91566 
 Bq                   -0.90794  -1.62022   0.91566 
 Bq                   -0.90794  -1.20252  -0.91566 
 Bq                   -0.90794  -1.20252   0.91566 
 Bq                   -0.86871  -1.41137  -0.92388 
 Bq                   -0.86871  -1.41137   0.92388 
 Bq                   -0.84314  -0.83402  -0.70711 
 Bq                   -0.84314  -0.83402   0.70711 
 Bq                   -0.76952  -1.81599  -0.77723 
 Bq                   -0.76952  -1.81599   0.77723 
 Bq                   -0.76952  -1.00675  -0.77723 
 Bq                   -0.76952  -1.00675   0.77723 
 Bq                   -0.71333  -1.61013  -0.81914 
 Bq                   -0.71333  -1.61013   0.81914 
 Bq                   -0.71333  -1.21261  -0.81914 
 Bq                   -0.71333  -1.21261   0.81914 
 Bq                   -0.69582  -1.41137  -0.83147 
 Bq                   -0.69582  -1.41137   0.83147 
 Bq                   -0.59811  -1.79405  -0.65328 
 Bq                   -0.59811  -1.79405   0.65328 
 Bq                   -0.55787  -1.60646  -0.69352 
 Bq                   -0.55787  -1.60646   0.69352 
 Bq                   -0.55787  -1.21628  -0.69352 
 Bq                   -0.55787  -1.21628   0.69352 
 Bq                   -0.54428  -1.41137  -0.70711 
 Bq                   -0.54428  -1.41137   0.70711 
 Bq                   -0.47416  -1.81599  -0.48187 
 Bq                   -0.47416  -1.81599   0.48187 
 Bq                   -0.43225  -1.61013  -0.53806 
 Bq                   -0.43225  -1.61013   0.53806 
 Bq                   -0.38536  -1.81962  -0.28868 
 Bq                   -0.38536  -1.81962   0.28868 
 Bq                   -0.34686  -1.83777   0. 
 Bq                   -0.33573  -1.62022  -0.34345 
 Bq                   -0.33573  -1.62022   0.34345 
 Bq                   -0.70711  -0.72289  -0.70711 
 Bq                   -0.70711  -0.72289   0.70711 
 Bq                   -0.69352  -0.91798  -0.69352 
 Bq                   -0.69352  -0.91798   0.69352 
 Bq                   -0.69352  -0.5278   -0.69352 
 Bq                   -0.69352  -0.5278    0.69352 
 Bq                   -0.55557  -0.72289  -0.83147 
 Bq                   -0.55557  -0.72289   0.83147 
 Bq                   -0.53806  -0.92165  -0.81914 
 Bq                   -0.53806  -0.92165   0.81914 
 Bq                   -0.53806  -0.52413  -0.81914 
 Bq                   -0.53806  -0.52413   0.81914 
 Bq                   -0.48187  -1.12751  -0.77723 
 Bq                   -0.48187  -1.12751   0.77723 
 Bq                   -0.48187  -0.31827  -0.77723 
 Bq                   -0.48187  -0.31827   0.77723 
 Bq                   -0.40825  -1.30024  -0.70711 
 Bq                   -0.40825  -1.30024   0.70711 
 Bq                   -0.40825  -0.14554  -0.70711 
 Bq                   -0.40825  -0.14554   0.70711 
 Bq                   -0.38268  -0.72289  -0.92388 
 Bq                   -0.38268  -0.72289   0.92388 
 Bq                   -0.34345  -0.93174  -0.91566 
 Bq                   -0.34345  -0.93174   0.91566 
 Bq                   -0.34345  -0.51404  -0.91566 
 Bq                   -0.34345  -0.51404   0.91566 
 Bq                   -0.28868  -1.13114  -0.86603 
 Bq                   -0.28868  -1.13114   0.86603 
 Bq                   -0.28868  -0.31464  -0.86603 
 Bq                   -0.28868  -0.31464   0.86603 
 Bq                   -0.28108  -1.68257   0. 
 Bq                   -0.2706   -1.64677  -0.2706 
 Bq                   -0.2706   -1.64677   0.2706 
 Bq                   -0.25882  -1.51157  -0.55768 
 Bq                   -0.25882  -1.51157   0.55768 
 Bq                   -0.19509  -0.72289  -0.98079 
 Bq                   -0.19509  -0.72289   0.98079 
 Bq                   -0.15076  -1.36249  -0.75378 
 Bq                   -0.15076  -1.36249   0.75378 
 Bq                   -0.15076  -0.08329  -0.75378 
 Bq                   -0.15076  -0.08329   0.75378 
 Bq                   -0.14943  -0.93421  -0.96593 
 Bq                   -0.14943  -0.93421   0.96593 
 Bq                   -0.14943  -0.51157  -0.96593 
 Bq                   -0.14943  -0.51157   0.96593 
 Bq                   -0.13843  -1.61321  -0.43378 
 Bq                   -0.13843  -1.61321   0.43378 
 Bq                   -0.13795  -1.70368  -0.13795 
 Bq                   -0.13795  -1.70368   0.13795 
 Bq                    0.       -1.72289   0. 
 Bq                    0.       -1.68257  -0.28108 
 Bq                    0.       -1.68257   0.28108 
 Bq                    0.       -1.53939  -0.57735 
 Bq                    0.       -1.53939   0.57735 
 Bq                    0.       -1.14929  -0.90453 
 Bq                    0.       -1.14929   0.90453 
 Bq                    0.       -0.72289  -1. 
 Bq                    0.       -0.72289   1. 
 Bq                    0.       -0.29649  -0.90453 
 Bq                    0.       -0.29649   0.90453 
 Bq                    0.13795  -1.70368  -0.13795 
 Bq                    0.13795  -1.70368   0.13795 
 Bq                    0.13843  -1.61321  -0.43378 
 Bq                    0.13843  -1.61321   0.43378 
 Bq                    0.14943  -0.93421  -0.96593 
 Bq                    0.14943  -0.93421   0.96593 
 Bq                    0.14943  -0.51157  -0.96593 
 Bq                    0.14943  -0.51157   0.96593 
 Bq                    0.15076  -1.36249  -0.75378 
 Bq                    0.15076  -1.36249   0.75378 
 Bq                    0.15076  -0.08329  -0.75378 
 Bq                    0.15076  -0.08329   0.75378 
 Bq                    0.19509  -0.72289  -0.98079 
 Bq                    0.19509  -0.72289   0.98079 
 Bq                    0.25882  -1.51157  -0.55768 
 Bq                    0.25882  -1.51157   0.55768 
 Bq                    0.2706   -1.64677  -0.2706 
 Bq                    0.2706   -1.64677   0.2706 
 Bq                    0.28108  -1.68257   0. 
 Bq                    0.28868  -1.13114  -0.86603 
 Bq                    0.28868  -1.13114   0.86603 
 Bq                    0.28868  -0.31464  -0.86603 
 Bq                    0.28868  -0.31464   0.86603 
 Bq                    0.34345  -0.93174  -0.91566 
 Bq                    0.34345  -0.93174   0.91566 
 Bq                    0.34345  -0.51404  -0.91566 
 Bq                    0.34345  -0.51404   0.91566 
 Bq                    0.38268  -0.72289  -0.92388 
 Bq                    0.38268  -0.72289   0.92388 
 Bq                    0.40825  -1.30024  -0.70711 
 Bq                    0.40825  -1.30024   0.70711 
 Bq                    0.40825  -0.14554  -0.70711 
 Bq                    0.40825  -0.14554   0.70711 
 Bq                    0.48187  -1.12751  -0.77723 
 Bq                    0.48187  -1.12751   0.77723 
 Bq                    0.48187  -0.31827  -0.77723 
 Bq                    0.48187  -0.31827   0.77723 
 Bq                    0.53806  -0.92165  -0.81914 
 Bq                    0.53806  -0.92165   0.81914 
 Bq                    0.53806  -0.52413  -0.81914 
 Bq                    0.53806  -0.52413   0.81914 
 Bq                    0.55557  -0.72289  -0.83147 
 Bq                    0.55557  -0.72289   0.83147 
 Bq                    0.69352  -0.91798  -0.69352 
 Bq                    0.69352  -0.91798   0.69352 
 Bq                    0.69352  -0.5278   -0.69352 
 Bq                    0.69352  -0.5278    0.69352 
 Bq                    0.70711  -0.72289  -0.70711 
 Bq                    0.70711  -0.72289   0.70711 
 Bq                    0.33573  -1.62022  -0.34345 
 Bq                    0.33573  -1.62022   0.34345 
 Bq                    0.34686  -1.83777   0. 
 Bq                    0.38536  -1.81962  -0.28868 
 Bq                    0.38536  -1.81962   0.28868 
 Bq                    0.43225  -1.61013  -0.53806 
 Bq                    0.43225  -1.61013   0.53806 
 Bq                    0.47416  -1.81599  -0.48187 
 Bq                    0.47416  -1.81599   0.48187 
 Bq                    0.54428  -1.41137  -0.70711 
 Bq                    0.54428  -1.41137   0.70711 
 Bq                    0.55787  -1.60646  -0.69352 
 Bq                    0.55787  -1.60646   0.69352 
 Bq                    0.55787  -1.21628  -0.69352 
 Bq                    0.55787  -1.21628   0.69352 
 Bq                    0.59811  -1.79405  -0.65328 
 Bq                    0.59811  -1.79405   0.65328 
 Bq                    0.69582  -1.41137  -0.83147 
 Bq                    0.69582  -1.41137   0.83147 
 Bq                    0.71333  -1.61013  -0.81914 
 Bq                    0.71333  -1.61013   0.81914 
 Bq                    0.71333  -1.21261  -0.81914 
 Bq                    0.71333  -1.21261   0.81914 
 Bq                    0.76952  -1.81599  -0.77723 
 Bq                    0.76952  -1.81599   0.77723 
 Bq                    0.76952  -1.00675  -0.77723 
 Bq                    0.76952  -1.00675   0.77723 
 Bq                    0.84314  -0.83402  -0.70711 
 Bq                    0.84314  -0.83402   0.70711 
 Bq                    0.86871  -1.41137  -0.92388 
 Bq                    0.86871  -1.41137   0.92388 
 Bq                    0.90794  -1.62022  -0.91566 
 Bq                    0.90794  -1.62022   0.91566 
 Bq                    0.90794  -1.20252  -0.91566 
 Bq                    0.90794  -1.20252   0.91566 
 Bq                    0.96271  -1.81962  -0.86603 
 Bq                    0.96271  -1.81962   0.86603 
 Bq                    0.96271  -1.00312  -0.86603 
 Bq                    0.96271  -1.00312   0.86603 
 Bq                    1.0563   -1.41137  -0.98079 
 Bq                    1.0563   -1.41137   0.98079 
 Bq                    1.10063  -0.77177  -0.75378 
 Bq                    1.10063  -0.77177   0.75378 
 Bq                    1.10196  -1.62269  -0.96593 
 Bq                    1.10196  -1.62269   0.96593 
 Bq                    1.10196  -1.20005  -0.96593 
 Bq                    1.10196  -1.20005   0.96593 
 Bq                    1.25139  -1.83777  -0.90453 
 Bq                    1.25139  -1.83777   0.90453 
 Bq                    1.25139  -1.41137  -1. 
 Bq                    1.25139  -1.41137   1. 
 Bq                    1.25139  -0.98497  -0.90453 
 Bq                    1.25139  -0.98497   0.90453 
 Bq                    1.40082  -1.62269  -0.96593 
 Bq                    1.40082  -1.62269   0.96593 
 Bq                    1.40082  -1.20005  -0.96593 
 Bq                    1.40082  -1.20005   0.96593 
 Bq                    1.40215  -0.77177  -0.75378 
 Bq                    1.40215  -0.77177   0.75378 
 Bq                    1.44648  -1.41137  -0.98079 
 Bq                    1.44648  -1.41137   0.98079 
 Bq                    1.54007  -1.81962  -0.86603 
 Bq                    1.54007  -1.81962   0.86603 
 Bq                    1.54007  -1.00312  -0.86603 
 Bq                    1.54007  -1.00312   0.86603 
 Bq                    1.59484  -1.62022  -0.91566 
 Bq                    1.59484  -1.62022   0.91566 
 Bq                    1.59484  -1.20252  -0.91566 
 Bq                    1.59484  -1.20252   0.91566 
 Bq                    1.63407  -1.41137  -0.92388 
 Bq                    1.63407  -1.41137   0.92388 
 Bq                    1.65964  -0.83402  -0.70711 
 Bq                    1.65964  -0.83402   0.70711 
 Bq                    1.73326  -1.81599  -0.77723 
 Bq                    1.73326  -1.81599   0.77723 
 Bq                    1.73326  -1.00675  -0.77723 
 Bq                    1.73326  -1.00675   0.77723 
 Bq                    1.78945  -1.61013  -0.81914 
 Bq                    1.78945  -1.61013   0.81914 
 Bq                    1.78945  -1.21261  -0.81914 
 Bq                    1.78945  -1.21261   0.81914 
 Bq                    1.80696  -1.41137  -0.83147 
 Bq                    1.80696  -1.41137   0.83147 
 Bq                    1.90467  -1.79405  -0.65328 
 Bq                    1.90467  -1.79405   0.65328 
 Bq                    1.94491  -1.60646  -0.69352 
 Bq                    1.94491  -1.60646   0.69352 
 Bq                    1.9585   -1.41137  -0.70711 
 Bq                    1.9585   -1.41137   0.70711 
 Bq                    2.02862  -1.81599  -0.48187 
 Bq                    2.02862  -1.81599   0.48187 
 Bq                    2.07053  -1.61013  -0.53806 
 Bq                    2.07053  -1.61013   0.53806 
 Bq                    2.11742  -1.81962  -0.28868 
 Bq                    2.11742  -1.81962   0.28868 
 Bq                    2.15592  -1.83777   0. 
 Bq                    2.16705  -1.62022  -0.34345 
 Bq                    2.16705  -1.62022   0.34345 
 Bq                    2.5427   -1.66616  -0.28868 
 Bq                    2.5427   -1.66616   0.28868 
 Bq                    2.6315   -1.66253  -0.48187 
 Bq                    2.6315   -1.66253   0.48187 
 Bq                    2.65495  -1.89751  -0.15076 
 Bq                    2.65495  -1.89751   0.15076 
 Bq                    2.70162  -1.83526  -0.40825 
 Bq                    2.70162  -1.83526   0.40825 
 Bq                    2.71521  -1.453    -0.69352 
 Bq                    2.71521  -1.453     0.69352 
 Bq                    2.75545  -1.64059  -0.65328 
 Bq                    2.75545  -1.64059   0.65328 
 Bq                    2.82079  -1.81348  -0.58794 
 Bq                    2.82079  -1.81348   0.58794 
 Bq                    2.83138  -2.07441   0. 
 Bq                    2.85105  -2.04659  -0.25882 
 Bq                    2.85105  -2.04659   0.25882 
 Bq                    2.85316  -1.25791  -0.83147 
 Bq                    2.85316  -1.25791   0.83147 
 Bq                    2.87067  -1.45667  -0.81914 
 Bq                    2.87067  -1.45667   0.81914 
 Bq                    2.90873  -1.96502  -0.5 
 Bq                    2.90873  -1.96502   0.5 
 Bq                    2.92686  -1.66253  -0.77723 
 Bq                    2.92686  -1.66253   0.77723 
 Bq                    2.97495  -2.14823  -0.13843 
 Bq                    2.97495  -2.14823   0.13843 
 Bq                    3.00048  -1.83526  -0.70711 
 Bq                    3.00048  -1.83526   0.70711 
 Bq                    3.01588  -2.08938  -0.39285 
 Bq                    3.01588  -2.08938   0.39285 
 Bq                    3.02605  -1.25791  -0.92388 
 Bq                    3.02605  -1.25791   0.92388 
 Bq                    3.06528  -1.46676  -0.91566 
 Bq                    3.06528  -1.46676   0.91566 
 Bq                    3.06528  -1.04906  -0.91566 
 Bq                    3.06528  -1.04906   0.91566 
 Bq                    3.12005  -1.66616  -0.86603 
 Bq                    3.12005  -1.66616   0.86603 
 Bq                    3.12005  -0.84966  -0.86603 
 Bq                    3.12005  -0.84966   0.86603 
 Bq                    3.12765  -2.21759   0. 
 Bq                    3.13813  -2.18179  -0.2706 
 Bq                    3.13813  -2.18179   0.2706 
 Bq                    3.14991  -2.04659  -0.55768 
 Bq                    3.14991  -2.04659   0.55768 
 Bq                    3.21364  -1.25791  -0.98079 
 Bq                    3.21364  -1.25791   0.98079 
 Bq                    3.25797  -1.89751  -0.75378 
 Bq                    3.25797  -1.89751   0.75378 
 Bq                    3.25797  -0.61831  -0.75378 
 Bq                    3.25797  -0.61831   0.75378 
 Bq                    3.2593   -1.46923  -0.96593 
 Bq                    3.2593   -1.46923   0.96593 
 Bq                    3.2593   -1.04659  -0.96593 
 Bq                    3.2593   -1.04659   0.96593 
 Bq                    3.2703   -2.14823  -0.43378 
 Bq                    3.2703   -2.14823   0.43378 
 Bq                    3.27078  -2.2387   -0.13795 
 Bq                    3.27078  -2.2387    0.13795 
 Bq                    3.40873  -2.25791   0. 
 Bq                    3.40873  -2.21759  -0.28108 
 Bq                    3.40873  -2.21759   0.28108 
 Bq                    3.40873  -2.07441  -0.57735 
 Bq                    3.40873  -2.07441   0.57735 
 Bq                    3.40873  -1.68431  -0.90453 
 Bq                    3.40873  -1.68431   0.90453 
 Bq                    3.40873  -1.25791  -1. 
 Bq                    3.40873  -1.25791   1. 
 Bq                    3.40873  -0.83151  -0.90453 
 Bq                    3.40873  -0.83151   0.90453 
 Bq                    3.40873  -0.44141  -0.57735 
 Bq                    3.40873  -0.44141   0.57735 
 Bq                    3.40873  -0.29823  -0.28108 
 Bq                    3.40873  -0.29823   0.28108 
 Bq                    3.40873  -0.25791   0. 
 Bq                    3.54668  -2.2387   -0.13795 
 Bq                    3.54668  -2.2387    0.13795 
 Bq                    3.54668  -0.27712  -0.13795 
 Bq                    3.54668  -0.27712   0.13795 
 Bq                    3.54716  -2.14823  -0.43378 
 Bq                    3.54716  -2.14823   0.43378 
 Bq                    3.54716  -0.36759  -0.43378 
 Bq                    3.54716  -0.36759   0.43378 
 Bq                    3.55816  -1.46923  -0.96593 
 Bq                    3.55816  -1.46923   0.96593 
 Bq                    3.55816  -1.04659  -0.96593 
 Bq                    3.55816  -1.04659   0.96593 
 Bq                    3.55949  -1.89751  -0.75378 
 Bq                    3.55949  -1.89751   0.75378 
 Bq                    3.55949  -0.61831  -0.75378 
 Bq                    3.55949  -0.61831   0.75378 
 Bq                    3.60382  -1.25791  -0.98079 
 Bq                    3.60382  -1.25791   0.98079 
 Bq                    3.66755  -2.04659  -0.55768 
 Bq                    3.66755  -2.04659   0.55768 
 Bq                    3.66755  -0.46923  -0.55768 
 Bq                    3.66755  -0.46923   0.55768 
 Bq                    3.67933  -2.18179  -0.2706 
 Bq                    3.67933  -2.18179   0.2706 
 Bq                    3.67933  -0.33403  -0.2706 
 Bq                    3.67933  -0.33403   0.2706 
 Bq                    3.68981  -2.21759   0. 
 Bq                    3.68981  -0.29823   0. 
 Bq                    3.69741  -1.66616  -0.86603 
 Bq                    3.69741  -1.66616   0.86603 
 Bq                    3.69741  -0.84966  -0.86603 
 Bq                    3.69741  -0.84966   0.86603 
 Bq                    3.75218  -1.46676  -0.91566 
 Bq                    3.75218  -1.46676   0.91566 
 Bq                    3.75218  -1.04906  -0.91566 
 Bq                    3.75218  -1.04906   0.91566 
 Bq                    3.79141  -1.25791  -0.92388 
 Bq                    3.79141  -1.25791   0.92388 
 Bq                    3.80158  -2.08938  -0.39285 
 Bq                    3.80158  -2.08938   0.39285 
 Bq                    3.80158  -0.42644  -0.39285 
 Bq                    3.80158  -0.42644   0.39285 
 Bq                    3.81698  -1.83526  -0.70711 
 Bq                    3.81698  -1.83526   0.70711 
 Bq                    3.81698  -0.68056  -0.70711 
 Bq                    3.81698  -0.68056   0.70711 
 Bq                    3.84251  -2.14823  -0.13843 
 Bq                    3.84251  -2.14823   0.13843 
 Bq                    3.84251  -0.36759  -0.13843 
 Bq                    3.84251  -0.36759   0.13843 
 Bq                    3.8906   -1.66253  -0.77723 
 Bq                    3.8906   -1.66253   0.77723 
 Bq                    3.8906   -0.85329  -0.77723 
 Bq                    3.8906   -0.85329   0.77723 
 Bq                    3.90873  -1.96502  -0.5 
 Bq                    3.90873  -1.96502   0.5 
 Bq                    3.90873  -0.5508   -0.5 
 Bq                    3.90873  -0.5508    0.5 
 Bq                    3.94679  -1.45667  -0.81914 
 Bq                    3.94679  -1.45667   0.81914 
 Bq                    3.94679  -1.05915  -0.81914 
 Bq                    3.94679  -1.05915   0.81914 
 Bq                    3.9643   -1.25791  -0.83147 
 Bq                    3.9643   -1.25791   0.83147 
 Bq                    3.96641  -2.04659  -0.25882 
 Bq                    3.96641  -2.04659   0.25882 
 Bq                    3.96641  -0.46923  -0.25882 
 Bq                    3.96641  -0.46923   0.25882 
 Bq                    3.98608  -2.07441   0. 
 Bq                    3.98608  -0.44141   0. 
 Bq                    3.99667  -1.81348  -0.58794 
 Bq                    3.99667  -1.81348   0.58794 
 Bq                    3.99667  -0.70234  -0.58794 
 Bq                    3.99667  -0.70234   0.58794 
 Bq                    4.06201  -1.64059  -0.65328 
 Bq                    4.06201  -1.64059   0.65328 
 Bq                    4.06201  -0.87523  -0.65328 
 Bq                    4.06201  -0.87523   0.65328 
 Bq                    4.10225  -1.453    -0.69352 
 Bq                    4.10225  -1.453     0.69352 
 Bq                    4.10225  -1.06282  -0.69352 
 Bq                    4.10225  -1.06282   0.69352 
 Bq                    4.11584  -1.83526  -0.40825 
 Bq                    4.11584  -1.83526   0.40825 
 Bq                    4.11584  -1.25791  -0.70711 
 Bq                    4.11584  -1.25791   0.70711 
 Bq                    4.11584  -0.68056  -0.40825 
 Bq                    4.11584  -0.68056   0.40825 
 Bq                    4.16251  -1.89751  -0.15076 
 Bq                    4.16251  -1.89751   0.15076 
 Bq                    4.16251  -0.61831  -0.15076 
 Bq                    4.16251  -0.61831   0.15076 
 Bq                    4.18596  -1.66253  -0.48187 
 Bq                    4.18596  -1.66253   0.48187 
 Bq                    4.18596  -0.85329  -0.48187 
 Bq                    4.18596  -0.85329   0.48187 
 Bq                    4.22787  -1.45667  -0.53806 
 Bq                    4.22787  -1.45667   0.53806 
 Bq                    4.22787  -1.05915  -0.53806 
 Bq                    4.22787  -1.05915   0.53806 
 Bq                    4.2402   -1.25791  -0.55557 
 Bq                    4.2402   -1.25791   0.55557 
 Bq                    4.27476  -1.66616  -0.28868 
 Bq                    4.27476  -1.66616   0.28868 
 Bq                    4.27476  -0.84966  -0.28868 
 Bq                    4.27476  -0.84966   0.28868 
 Bq                    4.31326  -1.68431   0. 
 Bq                    4.31326  -0.83151   0. 
 Bq                    4.32439  -1.46676  -0.34345 
 Bq                    4.32439  -1.46676   0.34345 
 Bq                    4.32439  -1.04906  -0.34345 
 Bq                    4.32439  -1.04906   0.34345 
 Bq                    4.33261  -1.25791  -0.38268 
 Bq                    4.33261  -1.25791   0.38268 
 Bq                    4.37466  -1.46923  -0.14943 
 Bq                    4.37466  -1.46923   0.14943 
 Bq                    4.37466  -1.04659  -0.14943 
 Bq                    4.37466  -1.04659   0.14943 
 Bq                    4.38952  -1.25791  -0.19509 
 Bq                    4.38952  -1.25791   0.19509 
 Bq                    4.40873  -1.25791   0. 
 Bq                    2.5427    1.66616  -0.28868 
 Bq                    2.5427    1.66616   0.28868 
 Bq                    2.6315    1.66253  -0.48187 
 Bq                    2.6315    1.66253   0.48187 
 Bq                    2.65495   1.89751  -0.15076 
 Bq                    2.65495   1.89751   0.15076 
 Bq                    2.70162   1.83526  -0.40825 
 Bq                    2.70162   1.83526   0.40825 
 Bq                    2.71521   1.453    -0.69352 
 Bq                    2.71521   1.453     0.69352 
 Bq                    2.75545   1.64059  -0.65328 
 Bq                    2.75545   1.64059   0.65328 
 Bq                    2.82079   1.81348  -0.58794 
 Bq                    2.82079   1.81348   0.58794 
 Bq                    2.83138   2.07441   0. 
 Bq                    2.85105   2.04659  -0.25882 
 Bq                    2.85105   2.04659   0.25882 
 Bq                    2.85316   1.25791  -0.83147 
 Bq                    2.85316   1.25791   0.83147 
 Bq                    2.87067   1.45667  -0.81914 
 Bq                    2.87067   1.45667   0.81914 
 Bq                    2.90873   1.96502  -0.5 
 Bq                    2.90873   1.96502   0.5 
 Bq                    2.92686   1.66253  -0.77723 
 Bq                    2.92686   1.66253   0.77723 
 Bq                    2.97495   2.14823  -0.13843 
 Bq                    2.97495   2.14823   0.13843 
 Bq                    3.00048   1.83526  -0.70711 
 Bq                    3.00048   1.83526   0.70711 
 Bq                    3.01588   2.08938  -0.39285 
 Bq                    3.01588   2.08938   0.39285 
 Bq                    3.02605   1.25791  -0.92388 
 Bq                    3.02605   1.25791   0.92388 
 Bq                    3.06528   1.04906  -0.91566 
 Bq                    3.06528   1.04906   0.91566 
 Bq                    3.06528   1.46676  -0.91566 
 Bq                    3.06528   1.46676   0.91566 
 Bq                    3.12005   0.84966  -0.86603 
 Bq                    3.12005   0.84966   0.86603 
 Bq                    3.12005   1.66616  -0.86603 
 Bq                    3.12005   1.66616   0.86603 
 Bq                    3.12765   2.21759   0. 
 Bq                    3.13813   2.18179  -0.2706 
 Bq                    3.13813   2.18179   0.2706 
 Bq                    3.14991   2.04659  -0.55768 
 Bq                    3.14991   2.04659   0.55768 
 Bq                    3.21364   1.25791  -0.98079 
 Bq                    3.21364   1.25791   0.98079 
 Bq                    3.25797   0.61831  -0.75378 
 Bq                    3.25797   0.61831   0.75378 
 Bq                    3.25797   1.89751  -0.75378 
 Bq                    3.25797   1.89751   0.75378 
 Bq                    3.2593    1.04659  -0.96593 
 Bq                    3.2593    1.04659   0.96593 
 Bq                    3.2593    1.46923  -0.96593 
 Bq                    3.2593    1.46923   0.96593 
 Bq                    3.2703    2.14823  -0.43378 
 Bq                    3.2703    2.14823   0.43378 
 Bq                    3.27078   2.2387   -0.13795 
 Bq                    3.27078   2.2387    0.13795 
 Bq                    3.40873   0.25791   0. 
 Bq                    3.40873   0.29823  -0.28108 
 Bq                    3.40873   0.29823   0.28108 
 Bq                    3.40873   0.44141  -0.57735 
 Bq                    3.40873   0.44141   0.57735 
 Bq                    3.40873   0.83151  -0.90453 
 Bq                    3.40873   0.83151   0.90453 
 Bq                    3.40873   1.25791  -1. 
 Bq                    3.40873   1.25791   1. 
 Bq                    3.40873   1.68431  -0.90453 
 Bq                    3.40873   1.68431   0.90453 
 Bq                    3.40873   2.07441  -0.57735 
 Bq                    3.40873   2.07441   0.57735 
 Bq                    3.40873   2.21759  -0.28108 
 Bq                    3.40873   2.21759   0.28108 
 Bq                    3.40873   2.25791   0. 
 Bq                    3.54668   0.27712  -0.13795 
 Bq                    3.54668   0.27712   0.13795 
 Bq                    3.54668   2.2387   -0.13795 
 Bq                    3.54668   2.2387    0.13795 
 Bq                    3.54716   0.36759  -0.43378 
 Bq                    3.54716   0.36759   0.43378 
 Bq                    3.54716   2.14823  -0.43378 
 Bq                    3.54716   2.14823   0.43378 
 Bq                    3.55816   1.04659  -0.96593 
 Bq                    3.55816   1.04659   0.96593 
 Bq                    3.55816   1.46923  -0.96593 
 Bq                    3.55816   1.46923   0.96593 
 Bq                    3.55949   0.61831  -0.75378 
 Bq                    3.55949   0.61831   0.75378 
 Bq                    3.55949   1.89751  -0.75378 
 Bq                    3.55949   1.89751   0.75378 
 Bq                    3.60382   1.25791  -0.98079 
 Bq                    3.60382   1.25791   0.98079 
 Bq                    3.66755   0.46923  -0.55768 
 Bq                    3.66755   0.46923   0.55768 
 Bq                    3.66755   2.04659  -0.55768 
 Bq                    3.66755   2.04659   0.55768 
 Bq                    3.67933   0.33403  -0.2706 
 Bq                    3.67933   0.33403   0.2706 
 Bq                    3.67933   2.18179  -0.2706 
 Bq                    3.67933   2.18179   0.2706 
 Bq                    3.68981   0.29823   0. 
 Bq                    3.68981   2.21759   0. 
 Bq                    3.69741   0.84966  -0.86603 
 Bq                    3.69741   0.84966   0.86603 
 Bq                    3.69741   1.66616  -0.86603 
 Bq                    3.69741   1.66616   0.86603 
 Bq                    3.75218   1.04906  -0.91566 
 Bq                    3.75218   1.04906   0.91566 
 Bq                    3.75218   1.46676  -0.91566 
 Bq                    3.75218   1.46676   0.91566 
 Bq                    3.79141   1.25791  -0.92388 
 Bq                    3.79141   1.25791   0.92388 
 Bq                    3.80158   0.42644  -0.39285 
 Bq                    3.80158   0.42644   0.39285 
 Bq                    3.80158   2.08938  -0.39285 
 Bq                    3.80158   2.08938   0.39285 
 Bq                    3.81698   0.68056  -0.70711 
 Bq                    3.81698   0.68056   0.70711 
 Bq                    3.81698   1.83526  -0.70711 
 Bq                    3.81698   1.83526   0.70711 
 Bq                    3.84251   0.36759  -0.13843 
 Bq                    3.84251   0.36759   0.13843 
 Bq                    3.84251   2.14823  -0.13843 
 Bq                    3.84251   2.14823   0.13843 
 Bq                    3.8906    0.85329  -0.77723 
 Bq                    3.8906    0.85329   0.77723 
 Bq                    3.8906    1.66253  -0.77723 
 Bq                    3.8906    1.66253   0.77723 
 Bq                    3.90873   0.5508   -0.5 
 Bq                    3.90873   0.5508    0.5 
 Bq                    3.90873   1.96502  -0.5 
 Bq                    3.90873   1.96502   0.5 
 Bq                    3.94679   1.05915  -0.81914 
 Bq                    3.94679   1.05915   0.81914 
 Bq                    3.94679   1.45667  -0.81914 
 Bq                    3.94679   1.45667   0.81914 
 Bq                    3.9643    1.25791  -0.83147 
 Bq                    3.9643    1.25791   0.83147 
 Bq                    3.96641   0.46923  -0.25882 
 Bq                    3.96641   0.46923   0.25882 
 Bq                    3.96641   2.04659  -0.25882 
 Bq                    3.96641   2.04659   0.25882 
 Bq                    3.98608   0.44141   0. 
 Bq                    3.98608   2.07441   0. 
 Bq                    3.99667   0.70234  -0.58794 
 Bq                    3.99667   0.70234   0.58794 
 Bq                    3.99667   1.81348  -0.58794 
 Bq                    3.99667   1.81348   0.58794 
 Bq                    4.06201   0.87523  -0.65328 
 Bq                    4.06201   0.87523   0.65328 
 Bq                    4.06201   1.64059  -0.65328 
 Bq                    4.06201   1.64059   0.65328 
 Bq                    4.10225   1.06282  -0.69352 
 Bq                    4.10225   1.06282   0.69352 
 Bq                    4.10225   1.453    -0.69352 
 Bq                    4.10225   1.453     0.69352 
 Bq                    4.11584   0.68056  -0.40825 
 Bq                    4.11584   0.68056   0.40825 
 Bq                    4.11584   1.25791  -0.70711 
 Bq                    4.11584   1.25791   0.70711 
 Bq                    4.11584   1.83526  -0.40825 
 Bq                    4.11584   1.83526   0.40825 
 Bq                    4.16251   0.61831  -0.15076 
 Bq                    4.16251   0.61831   0.15076 
 Bq                    4.16251   1.89751  -0.15076 
 Bq                    4.16251   1.89751   0.15076 
 Bq                    4.18596   0.85329  -0.48187 
 Bq                    4.18596   0.85329   0.48187 
 Bq                    4.18596   1.66253  -0.48187 
 Bq                    4.18596   1.66253   0.48187 
 Bq                    4.22787   1.05915  -0.53806 
 Bq                    4.22787   1.05915   0.53806 
 Bq                    4.22787   1.45667  -0.53806 
 Bq                    4.22787   1.45667   0.53806 
 Bq                    4.2402    1.25791  -0.55557 
 Bq                    4.2402    1.25791   0.55557 
 Bq                    4.27476   0.84966  -0.28868 
 Bq                    4.27476   0.84966   0.28868 
 Bq                    4.27476   1.66616  -0.28868 
 Bq                    4.27476   1.66616   0.28868 
 Bq                    4.31326   0.83151   0. 
 Bq                    4.31326   1.68431   0. 
 Bq                    4.32439   1.04906  -0.34345 
 Bq                    4.32439   1.04906   0.34345 
 Bq                    4.32439   1.46676  -0.34345 
 Bq                    4.32439   1.46676   0.34345 
 Bq                    4.33261   1.25791  -0.38268 
 Bq                    4.33261   1.25791   0.38268 
 Bq                    4.37466   1.04659  -0.14943 
 Bq                    4.37466   1.04659   0.14943 
 Bq                    4.37466   1.46923  -0.14943 
 Bq                    4.37466   1.46923   0.14943 
 Bq                    4.38952   1.25791  -0.19509 
 Bq                    4.38952   1.25791   0.19509 
 Bq                    4.40873   1.25791   0. 
 Bq                    0.24972   2.51472   0. 
 Bq                    0.26893   2.51472  -0.19509 
 Bq                    0.26893   2.51472   0.19509 
 Bq                    0.28379   2.3034   -0.14943 
 Bq                    0.28379   2.3034    0.14943 
 Bq                    0.28379   2.72604  -0.14943 
 Bq                    0.28379   2.72604   0.14943 
 Bq                    0.32584   2.51472  -0.38268 
 Bq                    0.32584   2.51472   0.38268 
 Bq                    0.33406   2.30587  -0.34345 
 Bq                    0.33406   2.30587   0.34345 
 Bq                    0.33406   2.72357  -0.34345 
 Bq                    0.33406   2.72357   0.34345 
 Bq                    0.34519   2.08832   0. 
 Bq                    0.34519   2.94112   0. 
 Bq                    0.38369   2.10647  -0.28868 
 Bq                    0.38369   2.10647   0.28868 
 Bq                    0.38369   2.92297  -0.28868 
 Bq                    0.38369   2.92297   0.28868 
 Bq                    0.41825   2.51472  -0.55557 
 Bq                    0.41825   2.51472   0.55557 
 Bq                    0.43058   2.31596  -0.53806 
 Bq                    0.43058   2.31596   0.53806 
 Bq                    0.43058   2.71348  -0.53806 
 Bq                    0.43058   2.71348   0.53806 
 Bq                    0.47249   2.1101   -0.48187 
 Bq                    0.47249   2.1101    0.48187 
 Bq                    0.47249   2.91934  -0.48187 
 Bq                    0.47249   2.91934   0.48187 
 Bq                    0.49594   3.15432  -0.15076 
 Bq                    0.49594   3.15432   0.15076 
 Bq                    0.54261   2.51472  -0.70711 
 Bq                    0.54261   2.51472   0.70711 
 Bq                    0.54261   3.09207  -0.40825 
 Bq                    0.54261   3.09207   0.40825 
 Bq                    0.5562    2.31963  -0.69352 
 Bq                    0.5562    2.31963   0.69352 
 Bq                    0.5562    2.70981  -0.69352 
 Bq                    0.5562    2.70981   0.69352 
 Bq                    0.59644   2.13204  -0.65328 
 Bq                    0.59644   2.13204   0.65328 
 Bq                    0.59644   2.8974   -0.65328 
 Bq                    0.59644   2.8974    0.65328 
[...]
 387953\Bq,0,-1.63240343,-2.51472,0.92387953\Bq,0,-1.59316529,-2.723566
 6,-0.91565738\Bq,0,-1.59316529,-2.7235666,0.91565738\Bq,0,-1.59316529,
 -2.3058734,-0.91565738\Bq,0,-1.59316529,-2.3058734,0.91565738\Bq,0,-1.
 53839513,-2.92296829,-0.8660254\Bq,0,-1.53839513,-2.92296829,0.8660254
 \Bq,0,-1.53839513,-2.10647171,-0.8660254\Bq,0,-1.53839513,-2.10647171,
 0.8660254\Bq,0,-1.53080464,-3.47440298,0.\Bq,0,-1.52031805,-3.43859953
 ,-0.27059805\Bq,0,-1.52031805,-3.43859953,0.27059805\Bq,0,-1.50853905,
 -3.30339513,-0.55767754\Bq,0,-1.50853905,-3.30339513,0.55767754\Bq,0,-
 1.44481032,-2.51472,-0.98078528\Bq,0,-1.44481032,-2.51472,0.98078528\B
 q,0,-1.40047567,-3.15432215,-0.75377836\Bq,0,-1.40047567,-3.15432215,0
 .75377836\Bq,0,-1.39914925,-2.72604487,-0.96592583\Bq,0,-1.39914925,-2
 .72604487,0.96592583\Bq,0,-1.39914925,-2.30339513,-0.96592583\Bq,0,-1.
 39914925,-2.30339513,0.96592583\Bq,0,-1.3881492,-3.40504003,-0.4337828
 9\Bq,0,-1.3881492,-3.40504003,0.43378289\Bq,0,-1.38766969,-3.49550528,
 -0.13794969\Bq,0,-1.38766969,-3.49550528,0.13794969\Bq,0,-1.24972,-3.5
 1472,0.\Bq,0,-1.24972,-3.47440298,-0.28108464\Bq,0,-1.24972,-3.4744029
 8,0.28108464\Bq,0,-1.24972,-3.33121658,-0.57735027\Bq,0,-1.24972,-3.33
 121658,0.57735027\Bq,0,-1.24972,-2.94112143,-0.90453403\Bq,0,-1.24972,
 -2.94112143,0.90453403\Bq,0,-1.24972,-2.51472,-1.\Bq,0,-1.24972,-2.514
 72,1.\Bq,0,-1.24972,-2.08831857,-0.90453403\Bq,0,-1.24972,-2.08831857,
 0.90453403\Bq,0,-1.11177031,-3.49550528,-0.13794969\Bq,0,-1.11177031,-
 3.49550528,0.13794969\Bq,0,-1.1112908,-3.40504003,-0.43378289\Bq,0,-1.
 1112908,-3.40504003,0.43378289\Bq,0,-1.10029075,-2.72604487,-0.9659258
 3\Bq,0,-1.10029075,-2.72604487,0.96592583\Bq,0,-1.10029075,-2.30339513
 ,-0.96592583\Bq,0,-1.10029075,-2.30339513,0.96592583\Bq,0,-1.09896433,
 -3.15432215,-0.75377836\Bq,0,-1.09896433,-3.15432215,0.75377836\Bq,0,-
 1.05462968,-2.51472,-0.98078528\Bq,0,-1.05462968,-2.51472,0.98078528\B
 q,0,-0.99090095,-3.30339513,-0.55767754\Bq,0,-0.99090095,-3.30339513,0
 .55767754\Bq,0,-0.97912195,-3.43859953,-0.27059805\Bq,0,-0.97912195,-3
 .43859953,0.27059805\Bq,0,-0.96863536,-3.47440298,0.\Bq,0,-0.96104487,
 -2.92296829,-0.8660254\Bq,0,-0.96104487,-2.92296829,0.8660254\Bq,0,-0.
 96104487,-2.10647171,-0.8660254\Bq,0,-0.96104487,-2.10647171,0.8660254
 \Bq,0,-0.90627471,-2.7235666,-0.91565738\Bq,0,-0.90627471,-2.7235666,0
 .91565738\Bq,0,-0.90627471,-2.3058734,-0.91565738\Bq,0,-0.90627471,-2.
 3058734,0.91565738\Bq,0,-0.86703657,-2.51472,-0.92387953\Bq,0,-0.86703
 657,-2.51472,0.92387953\Bq,0,-0.85687252,-3.34618961,-0.39284748\Bq,0,
 -0.85687252,-3.34618961,0.39284748\Bq,0,-0.84147171,-3.09207027,-0.707
 10678\Bq,0,-0.84147171,-3.09207027,0.70710678\Bq,0,-0.81593711,-3.4050
 4003,-0.1384292\Bq,0,-0.81593711,-3.40504003,0.1384292\Bq,0,-0.7678455
 1,-2.91933504,-0.77722818\Bq,0,-0.76784551,-2.91933504,0.77722818\Bq,0
 ,-0.76784551,-2.11010496,-0.77722818\Bq,0,-0.76784551,-2.11010496,0.77
 722818\Bq,0,-0.74972,-3.22182678,-0.5\Bq,0,-0.74972,-3.22182678,0.5\Bq
 ,0,-0.71166397,-2.71347685,-0.81914066\Bq,0,-0.71166397,-2.71347685,0.
 81914066\Bq,0,-0.71166397,-2.31596315,-0.81914066\Bq,0,-0.71166397,-2.
 31596315,0.81914066\Bq,0,-0.69414977,-2.51472,-0.83146961\Bq,0,-0.6941
 4977,-2.51472,0.83146961\Bq,0,-0.69204246,-3.30339513,-0.25881905\Bq,0
 ,-0.69204246,-3.30339513,0.25881905\Bq,0,-0.67236973,-3.33121658,0.\Bq
 ,0,-0.6617822,-3.07029023,-0.5879378\Bq,0,-0.6617822,-3.07029023,0.587
 9378\Bq,0,-0.59643852,-2.89740343,-0.65328148\Bq,0,-0.59643852,-2.8974
 0343,0.65328148\Bq,0,-0.59643852,-2.13203657,-0.65328148\Bq,0,-0.59643
 852,-2.13203657,0.65328148\Bq,0,-0.55620008,-2.70981032,-0.69351992\Bq
 ,0,-0.55620008,-2.70981032,0.69351992\Bq,0,-0.55620008,-2.31962968,-0.
 69351992\Bq,0,-0.55620008,-2.31962968,0.69351992\Bq,0,-0.54261322,-3.0
 9207027,-0.40824829\Bq,0,-0.54261322,-3.09207027,0.40824829\Bq,0,-0.54
 261322,-2.51472,-0.70710678\Bq,0,-0.54261322,-2.51472,0.70710678\Bq,0,
 -0.49594164,-3.15432215,-0.15075567\Bq,0,-0.49594164,-3.15432215,0.150
 75567\Bq,0,-0.47249182,-2.91933504,-0.48187449\Bq,0,-0.47249182,-2.919
 33504,0.48187449\Bq,0,-0.47249182,-2.11010496,-0.48187449\Bq,0,-0.4724
 9182,-2.11010496,0.48187449\Bq,0,-0.43057934,-2.71347685,-0.53805603\B
 q,0,-0.43057934,-2.71347685,0.53805603\Bq,0,-0.43057934,-2.31596315,-0
 .53805603\Bq,0,-0.43057934,-2.31596315,0.53805603\Bq,0,-0.41825039,-2.
 51472,-0.55557023\Bq,0,-0.41825039,-2.51472,0.55557023\Bq,0,-0.3836946
 ,-2.92296829,-0.28867513\Bq,0,-0.3836946,-2.92296829,0.28867513\Bq,0,-
 0.3836946,-2.10647171,-0.28867513\Bq,0,-0.3836946,-2.10647171,0.288675
 13\Bq,0,-0.34518597,-2.94112143,0.\Bq,0,-0.34518597,-2.08831857,0.\Bq,
 0,-0.33406262,-2.7235666,-0.34344529\Bq,0,-0.33406262,-2.7235666,0.343
 44529\Bq,0,-0.33406262,-2.3058734,-0.34344529\Bq,0,-0.33406262,-2.3058
 734,0.34344529\Bq,0,-0.32584047,-2.51472,-0.38268343\Bq,0,-0.32584047,
 -2.51472,0.38268343\Bq,0,-0.28379417,-2.72604487,-0.14942925\Bq,0,-0.2
 8379417,-2.72604487,0.14942925\Bq,0,-0.28379417,-2.30339513,-0.1494292
 5\Bq,0,-0.28379417,-2.30339513,0.14942925\Bq,0,-0.26893472,-2.51472,-0
 .19509032\Bq,0,-0.26893472,-2.51472,0.19509032\Bq,0,-0.24972,-2.51472,
 0.\Bq,0,0.24972,-2.51472,0.\Bq,0,0.26893472,-2.51472,-0.19509032\Bq,0,
 0.26893472,-2.51472,0.19509032\Bq,0,0.28379417,-2.72604487,-0.14942925
 \Bq,0,0.28379417,-2.72604487,0.14942925\Bq,0,0.28379417,-2.30339513,-0
 .14942925\Bq,0,0.28379417,-2.30339513,0.14942925\Bq,0,0.32584047,-2.51
 472,-0.38268343\Bq,0,0.32584047,-2.51472,0.38268343\Bq,0,0.33406262,-2
 .7235666,-0.34344529\Bq,0,0.33406262,-2.7235666,0.34344529\Bq,0,0.3340
 6262,-2.3058734,-0.34344529\Bq,0,0.33406262,-2.3058734,0.34344529\Bq,0
 ,0.34518597,-2.94112143,0.\Bq,0,0.34518597,-2.08831857,0.\Bq,0,0.38369
 46,-2.92296829,-0.28867513\Bq,0,0.3836946,-2.92296829,0.28867513\Bq,0,
 0.3836946,-2.10647171,-0.28867513\Bq,0,0.3836946,-2.10647171,0.2886751
 3\Bq,0,0.41825039,-2.51472,-0.55557023\Bq,0,0.41825039,-2.51472,0.5555
 7023\Bq,0,0.43057934,-2.71347685,-0.53805603\Bq,0,0.43057934,-2.713476
 85,0.53805603\Bq,0,0.43057934,-2.31596315,-0.53805603\Bq,0,0.43057934,
 -2.31596315,0.53805603\Bq,0,0.47249182,-2.91933504,-0.48187449\Bq,0,0.
 47249182,-2.91933504,0.48187449\Bq,0,0.47249182,-2.11010496,-0.4818744
 9\Bq,0,0.47249182,-2.11010496,0.48187449\Bq,0,0.49594164,-3.15432215,-
 0.15075567\Bq,0,0.49594164,-3.15432215,0.15075567\Bq,0,0.54261322,-3.0
 9207027,-0.40824829\Bq,0,0.54261322,-3.09207027,0.40824829\Bq,0,0.5426
 1322,-2.51472,-0.70710678\Bq,0,0.54261322,-2.51472,0.70710678\Bq,0,0.5
 5620008,-2.70981032,-0.69351992\Bq,0,0.55620008,-2.70981032,0.69351992
 \Bq,0,0.55620008,-2.31962968,-0.69351992\Bq,0,0.55620008,-2.31962968,0
 .69351992\Bq,0,0.59643852,-2.89740343,-0.65328148\Bq,0,0.59643852,-2.8
 9740343,0.65328148\Bq,0,0.59643852,-2.13203657,-0.65328148\Bq,0,0.5964
 3852,-2.13203657,0.65328148\Bq,0,0.6617822,-3.07029023,-0.5879378\Bq,0
 ,0.6617822,-3.07029023,0.5879378\Bq,0,0.67236973,-3.33121658,0.\Bq,0,0
 .69204246,-3.30339513,-0.25881905\Bq,0,0.69204246,-3.30339513,0.258819
 05\Bq,0,0.69414977,-2.51472,-0.83146961\Bq,0,0.69414977,-2.51472,0.831
 46961\Bq,0,0.71166397,-2.71347685,-0.81914066\Bq,0,0.71166397,-2.71347
 685,0.81914066\Bq,0,0.71166397,-2.31596315,-0.81914066\Bq,0,0.71166397
 ,-2.31596315,0.81914066\Bq,0,0.74972,-3.22182678,-0.5\Bq,0,0.74972,-3.
 22182678,0.5\Bq,0,0.76784551,-2.91933504,-0.77722818\Bq,0,0.76784551,-
 2.91933504,0.77722818\Bq,0,0.76784551,-2.11010496,-0.77722818\Bq,0,0.7
 6784551,-2.11010496,0.77722818\Bq,0,0.81593711,-3.40504003,-0.1384292\
 Bq,0,0.81593711,-3.40504003,0.1384292\Bq,0,0.84147171,-3.09207027,-0.7
 0710678\Bq,0,0.84147171,-3.09207027,0.70710678\Bq,0,0.85687252,-3.3461
 8961,-0.39284748\Bq,0,0.85687252,-3.34618961,0.39284748\Bq,0,0.8670365
 7,-2.51472,-0.92387953\Bq,0,0.86703657,-2.51472,0.92387953\Bq,0,0.9062
 7471,-2.7235666,-0.91565738\Bq,0,0.90627471,-2.7235666,0.91565738\Bq,0
 ,0.90627471,-2.3058734,-0.91565738\Bq,0,0.90627471,-2.3058734,0.915657
 38\Bq,0,0.96104487,-2.92296829,-0.8660254\Bq,0,0.96104487,-2.92296829,
 0.8660254\Bq,0,0.96104487,-2.10647171,-0.8660254\Bq,0,0.96104487,-2.10
 647171,0.8660254\Bq,0,0.96863536,-3.47440298,0.\Bq,0,0.97912195,-3.438
 59953,-0.27059805\Bq,0,0.97912195,-3.43859953,0.27059805\Bq,0,0.990900
 95,-3.30339513,-0.55767754\Bq,0,0.99090095,-3.30339513,0.55767754\Bq,0
 ,1.05462968,-2.51472,-0.98078528\Bq,0,1.05462968,-2.51472,0.98078528\B
 q,0,1.09896433,-3.15432215,-0.75377836\Bq,0,1.09896433,-3.15432215,0.7
 5377836\Bq,0,1.10029075,-2.72604487,-0.96592583\Bq,0,1.10029075,-2.726
 04487,0.96592583\Bq,0,1.10029075,-2.30339513,-0.96592583\Bq,0,1.100290
 75,-2.30339513,0.96592583\Bq,0,1.1112908,-3.40504003,-0.43378289\Bq,0,
 1.1112908,-3.40504003,0.43378289\Bq,0,1.11177031,-3.49550528,-0.137949
 69\Bq,0,1.11177031,-3.49550528,0.13794969\Bq,0,1.24972,-3.51472,0.\Bq,
 0,1.24972,-3.47440298,-0.28108464\Bq,0,1.24972,-3.47440298,0.28108464\
 Bq,0,1.24972,-3.33121658,-0.57735027\Bq,0,1.24972,-3.33121658,0.577350
 27\Bq,0,1.24972,-2.94112143,-0.90453403\Bq,0,1.24972,-2.94112143,0.904
 53403\Bq,0,1.24972,-2.51472,-1.\Bq,0,1.24972,-2.51472,1.\Bq,0,1.24972,
 -2.08831857,-0.90453403\Bq,0,1.24972,-2.08831857,0.90453403\Bq,0,1.387
 66969,-3.49550528,-0.13794969\Bq,0,1.38766969,-3.49550528,0.13794969\B
 q,0,1.3881492,-3.40504003,-0.43378289\Bq,0,1.3881492,-3.40504003,0.433
 78289\Bq,0,1.39914925,-2.72604487,-0.96592583\Bq,0,1.39914925,-2.72604
 487,0.96592583\Bq,0,1.39914925,-2.30339513,-0.96592583\Bq,0,1.39914925
 ,-2.30339513,0.96592583\Bq,0,1.40047567,-3.15432215,-0.75377836\Bq,0,1
 .40047567,-3.15432215,0.75377836\Bq,0,1.44481032,-2.51472,-0.98078528\
 Bq,0,1.44481032,-2.51472,0.98078528\Bq,0,1.50853905,-3.30339513,-0.557
 67754\Bq,0,1.50853905,-3.30339513,0.55767754\Bq,0,1.52031805,-3.438599
 53,-0.27059805\Bq,0,1.52031805,-3.43859953,0.27059805\Bq,0,1.53080464,
 -3.47440298,0.\Bq,0,1.53839513,-2.92296829,-0.8660254\Bq,0,1.53839513,
 -2.92296829,0.8660254\Bq,0,1.53839513,-2.10647171,-0.8660254\Bq,0,1.53
 839513,-2.10647171,0.8660254\Bq,0,1.59316529,-2.7235666,-0.91565738\Bq
 ,0,1.59316529,-2.7235666,0.91565738\Bq,0,1.59316529,-2.3058734,-0.9156
 5738\Bq,0,1.59316529,-2.3058734,0.91565738\Bq,0,1.63240343,-2.51472,-0
 .92387953\Bq,0,1.63240343,-2.51472,0.92387953\Bq,0,1.64256748,-3.34618
 961,-0.39284748\Bq,0,1.64256748,-3.34618961,0.39284748\Bq,0,1.65796829
 ,-3.09207027,-0.70710678\Bq,0,1.65796829,-3.09207027,0.70710678\Bq,0,1
 .68350289,-3.40504003,-0.1384292\Bq,0,1.68350289,-3.40504003,0.1384292
 \Bq,0,1.73159449,-2.91933504,-0.77722818\Bq,0,1.73159449,-2.91933504,0
 .77722818\Bq,0,1.73159449,-2.11010496,-0.77722818\Bq,0,1.73159449,-2.1
 1010496,0.77722818\Bq,0,1.74972,-3.22182678,-0.5\Bq,0,1.74972,-3.22182
 678,0.5\Bq,0,1.78777603,-2.71347685,-0.81914066\Bq,0,1.78777603,-2.713
 47685,0.81914066\Bq,0,1.78777603,-2.31596315,-0.81914066\Bq,0,1.787776
 03,-2.31596315,0.81914066\Bq,0,1.80529023,-2.51472,-0.83146961\Bq,0,1.
 80529023,-2.51472,0.83146961\Bq,0,1.80739754,-3.30339513,-0.25881905\B
 q,0,1.80739754,-3.30339513,0.25881905\Bq,0,1.82707027,-3.33121658,0.\B
 q,0,1.8376578,-3.07029023,-0.5879378\Bq,0,1.8376578,-3.07029023,0.5879
 378\Bq,0,1.90300148,-2.89740343,-0.65328148\Bq,0,1.90300148,-2.8974034
 3,0.65328148\Bq,0,1.90300148,-2.13203657,-0.65328148\Bq,0,1.90300148,-
 2.13203657,0.65328148\Bq,0,1.94323992,-2.70981032,-0.69351992\Bq,0,1.9
 4323992,-2.70981032,0.69351992\Bq,0,1.94323992,-2.31962968,-0.69351992
 \Bq,0,1.94323992,-2.31962968,0.69351992\Bq,0,1.95682678,-3.09207027,-0
 .40824829\Bq,0,1.95682678,-3.09207027,0.40824829\Bq,0,1.95682678,-2.51
 472,-0.70710678\Bq,0,1.95682678,-2.51472,0.70710678\Bq,0,2.00349836,-3
 .15432215,-0.15075567\Bq,0,2.00349836,-3.15432215,0.15075567\Bq,0,2.02
 694818,-2.91933504,-0.48187449\Bq,0,2.02694818,-2.91933504,0.48187449\
 Bq,0,2.02694818,-2.11010496,-0.48187449\Bq,0,2.02694818,-2.11010496,0.
 48187449\Bq,0,2.06886066,-2.71347685,-0.53805603\Bq,0,2.06886066,-2.71
 347685,0.53805603\Bq,0,2.06886066,-2.31596315,-0.53805603\Bq,0,2.06886
 066,-2.31596315,0.53805603\Bq,0,2.08118961,-2.51472,-0.55557023\Bq,0,2
 .08118961,-2.51472,0.55557023\Bq,0,2.1157454,-2.92296829,-0.28867513\B
 q,0,2.1157454,-2.92296829,0.28867513\Bq,0,2.1157454,-2.10647171,-0.288
 67513\Bq,0,2.1157454,-2.10647171,0.28867513\Bq,0,2.15425403,-2.9411214
 3,0.\Bq,0,2.15425403,-2.08831857,0.\Bq,0,2.16537738,-2.7235666,-0.3434
 4529\Bq,0,2.16537738,-2.7235666,0.34344529\Bq,0,2.16537738,-2.3058734,
 -0.34344529\Bq,0,2.16537738,-2.3058734,0.34344529\Bq,0,2.17359953,-2.5
 1472,-0.38268343\Bq,0,2.17359953,-2.51472,0.38268343\Bq,0,2.21564583,-
 2.72604487,-0.14942925\Bq,0,2.21564583,-2.72604487,0.14942925\Bq,0,2.2
 1564583,-2.30339513,-0.14942925\Bq,0,2.21564583,-2.30339513,0.14942925
 \Bq,0,2.23050528,-2.51472,-0.19509032\Bq,0,2.23050528,-2.51472,0.19509
 032\Bq,0,2.24972,-2.51472,0.\Bq,0,0.52694322,0.,-0.70710678\Bq,0,0.526
 94322,0.,0.70710678\Bq,0,0.54053008,-0.19509032,-0.69351992\Bq,0,0.540
 53008,-0.19509032,0.69351992\Bq,0,0.54053008,0.19509032,-0.69351992\Bq
 ,0,0.54053008,0.19509032,0.69351992\Bq,0,0.67847977,0.,-0.83146961\Bq,
 0,0.67847977,0.,0.83146961\Bq,0,0.69599397,-0.19875685,-0.81914066\Bq,
 0,0.69599397,-0.19875685,0.81914066\Bq,0,0.69599397,0.19875685,-0.8191
 4066\Bq,0,0.69599397,0.19875685,0.81914066\Bq,0,0.75217551,-0.40461504
 ,-0.77722818\Bq,0,0.75217551,-0.40461504,0.77722818\Bq,0,0.75217551,0.
 40461504,-0.77722818\Bq,0,0.75217551,0.40461504,0.77722818\Bq,0,0.8258
 0171,-0.57735027,-0.70710678\Bq,0,0.82580171,-0.57735027,0.70710678\Bq
 ,0,0.82580171,0.57735027,-0.70710678\Bq,0,0.82580171,0.57735027,0.7071
 0678\Bq,0,0.85136657,0.,-0.92387953\Bq,0,0.85136657,0.,0.92387953\Bq,0
 ,0.89060471,-0.2088466,-0.91565738\Bq,0,0.89060471,-0.2088466,0.915657
 38\Bq,0,0.89060471,0.2088466,-0.91565738\Bq,0,0.89060471,0.2088466,0.9
 1565738\Bq,0,0.94537487,-0.40824829,-0.8660254\Bq,0,0.94537487,-0.4082
 4829,0.8660254\Bq,0,0.94537487,0.40824829,-0.8660254\Bq,0,0.94537487,0
 .40824829,0.8660254\Bq,0,1.03895968,0.,-0.98078528\Bq,0,1.03895968,0.,
 0.98078528\Bq,0,1.08329433,-0.63960215,-0.75377836\Bq,0,1.08329433,-0.
 63960215,0.75377836\Bq,0,1.08329433,0.63960215,-0.75377836\Bq,0,1.0832
 9433,0.63960215,0.75377836\Bq,0,1.08462075,-0.21132487,-0.96592583\Bq,
 0,1.08462075,-0.21132487,0.96592583\Bq,0,1.08462075,0.21132487,-0.9659
 2583\Bq,0,1.08462075,0.21132487,0.96592583\Bq,0,1.23405,-0.42640143,-0
 .90453403\Bq,0,1.23405,-0.42640143,0.90453403\Bq,0,1.23405,0.,-1.\Bq,0
 ,1.23405,0.,1.\Bq,0,1.23405,0.42640143,-0.90453403\Bq,0,1.23405,0.4264
 0143,0.90453403\Bq,0,1.38347925,-0.21132487,-0.96592583\Bq,0,1.3834792
 5,-0.21132487,0.96592583\Bq,0,1.38347925,0.21132487,-0.96592583\Bq,0,1
 .38347925,0.21132487,0.96592583\Bq,0,1.38480567,-0.63960215,-0.7537783
 6\Bq,0,1.38480567,-0.63960215,0.75377836\Bq,0,1.38480567,0.63960215,-0
 .75377836\Bq,0,1.38480567,0.63960215,0.75377836\Bq,0,1.42914032,0.,-0.
 98078528\Bq,0,1.42914032,0.,0.98078528\Bq,0,1.52272513,-0.40824829,-0.
 8660254\Bq,0,1.52272513,-0.40824829,0.8660254\Bq,0,1.52272513,0.408248
 29,-0.8660254\Bq,0,1.52272513,0.40824829,0.8660254\Bq,0,1.57749529,-0.
 2088466,-0.91565738\Bq,0,1.57749529,-0.2088466,0.91565738\Bq,0,1.57749
 529,0.2088466,-0.91565738\Bq,0,1.57749529,0.2088466,0.91565738\Bq,0,1.
 61673343,0.,-0.92387953\Bq,0,1.61673343,0.,0.92387953\Bq,0,1.64229829,
 -0.57735027,-0.70710678\Bq,0,1.64229829,-0.57735027,0.70710678\Bq,0,1.
 64229829,0.57735027,-0.70710678\Bq,0,1.64229829,0.57735027,0.70710678\
 Bq,0,1.71592449,-0.40461504,-0.77722818\Bq,0,1.71592449,-0.40461504,0.
 77722818\Bq,0,1.71592449,0.40461504,-0.77722818\Bq,0,1.71592449,0.4046
 1504,0.77722818\Bq,0,1.77210603,-0.19875685,-0.81914066\Bq,0,1.7721060
 3,-0.19875685,0.81914066\Bq,0,1.77210603,0.19875685,-0.81914066\Bq,0,1
 .77210603,0.19875685,0.81914066\Bq,0,1.78962023,0.,-0.83146961\Bq,0,1.
 78962023,0.,0.83146961\Bq,0,1.92756992,-0.19509032,-0.69351992\Bq,0,1.
 92756992,-0.19509032,0.69351992\Bq,0,1.92756992,0.19509032,-0.69351992
 \Bq,0,1.92756992,0.19509032,0.69351992\Bq,0,1.94115678,0.,-0.70710678\
 Bq,0,1.94115678,0.,0.70710678\Bq,0,-1.94115678,0.,-0.70710678\Bq,0,-1.
 94115678,0.,0.70710678\Bq,0,-1.92756992,-0.19509032,-0.69351992\Bq,0,-
 1.92756992,-0.19509032,0.69351992\Bq,0,-1.92756992,0.19509032,-0.69351
 992\Bq,0,-1.92756992,0.19509032,0.69351992\Bq,0,-1.78962023,0.,-0.8314
 6961\Bq,0,-1.78962023,0.,0.83146961\Bq,0,-1.77210603,-0.19875685,-0.81
 914066\Bq,0,-1.77210603,-0.19875685,0.81914066\Bq,0,-1.77210603,0.1987
 5685,-0.81914066\Bq,0,-1.77210603,0.19875685,0.81914066\Bq,0,-1.715924
 49,-0.40461504,-0.77722818\Bq,0,-1.71592449,-0.40461504,0.77722818\Bq,
 0,-1.71592449,0.40461504,-0.77722818\Bq,0,-1.71592449,0.40461504,0.777
 22818\Bq,0,-1.64229829,-0.57735027,-0.70710678\Bq,0,-1.64229829,-0.577
 35027,0.70710678\Bq,0,-1.64229829,0.57735027,-0.70710678\Bq,0,-1.64229
 829,0.57735027,0.70710678\Bq,0,-1.61673343,0.,-0.92387953\Bq,0,-1.6167
 3343,0.,0.92387953\Bq,0,-1.57749529,-0.2088466,-0.91565738\Bq,0,-1.577
 49529,-0.2088466,0.91565738\Bq,0,-1.57749529,0.2088466,-0.91565738\Bq,
 0,-1.57749529,0.2088466,0.91565738\Bq,0,-1.52272513,-0.40824829,-0.866
 0254\Bq,0,-1.52272513,-0.40824829,0.8660254\Bq,0,-1.52272513,0.4082482
 9,-0.8660254\Bq,0,-1.52272513,0.40824829,0.8660254\Bq,0,-1.42914032,0.
 ,-0.98078528\Bq,0,-1.42914032,0.,0.98078528\Bq,0,-1.38480567,-0.639602
 15,-0.75377836\Bq,0,-1.38480567,-0.63960215,0.75377836\Bq,0,-1.3848056
 7,0.63960215,-0.75377836\Bq,0,-1.38480567,0.63960215,0.75377836\Bq,0,-
 1.38347925,-0.21132487,-0.96592583\Bq,0,-1.38347925,-0.21132487,0.9659
 2583\Bq,0,-1.38347925,0.21132487,-0.96592583\Bq,0,-1.38347925,0.211324
 87,0.96592583\Bq,0,-1.23405,-0.42640143,-0.90453403\Bq,0,-1.23405,-0.4
 2640143,0.90453403\Bq,0,-1.23405,0.,-1.\Bq,0,-1.23405,0.,1.\Bq,0,-1.23
 405,0.42640143,-0.90453403\Bq,0,-1.23405,0.42640143,0.90453403\Bq,0,-1
 .08462075,-0.21132487,-0.96592583\Bq,0,-1.08462075,-0.21132487,0.96592
 583\Bq,0,-1.08462075,0.21132487,-0.96592583\Bq,0,-1.08462075,0.2113248
 7,0.96592583\Bq,0,-1.08329433,-0.63960215,-0.75377836\Bq,0,-1.08329433
 ,-0.63960215,0.75377836\Bq,0,-1.08329433,0.63960215,-0.75377836\Bq,0,-
 1.08329433,0.63960215,0.75377836\Bq,0,-1.03895968,0.,-0.98078528\Bq,0,
 -1.03895968,0.,0.98078528\Bq,0,-0.94537487,-0.40824829,-0.8660254\Bq,0
 ,-0.94537487,-0.40824829,0.8660254\Bq,0,-0.94537487,0.40824829,-0.8660
 254\Bq,0,-0.94537487,0.40824829,0.8660254\Bq,0,-0.89060471,-0.2088466,
 -0.91565738\Bq,0,-0.89060471,-0.2088466,0.91565738\Bq,0,-0.89060471,0.
 2088466,-0.91565738\Bq,0,-0.89060471,0.2088466,0.91565738\Bq,0,-0.8513
 6657,0.,-0.92387953\Bq,0,-0.85136657,0.,0.92387953\Bq,0,-0.82580171,-0
 .57735027,-0.70710678\Bq,0,-0.82580171,-0.57735027,0.70710678\Bq,0,-0.
 82580171,0.57735027,-0.70710678\Bq,0,-0.82580171,0.57735027,0.70710678
 \Bq,0,-0.75217551,-0.40461504,-0.77722818\Bq,0,-0.75217551,-0.40461504
 ,0.77722818\Bq,0,-0.75217551,0.40461504,-0.77722818\Bq,0,-0.75217551,0
 .40461504,0.77722818\Bq,0,-0.69599397,-0.19875685,-0.81914066\Bq,0,-0.
 69599397,-0.19875685,0.81914066\Bq,0,-0.69599397,0.19875685,-0.8191406
 6\Bq,0,-0.69599397,0.19875685,0.81914066\Bq,0,-0.67847977,0.,-0.831469
 61\Bq,0,-0.67847977,0.,0.83146961\Bq,0,-0.54053008,-0.19509032,-0.6935
 1992\Bq,0,-0.54053008,-0.19509032,0.69351992\Bq,0,-0.54053008,0.195090
 32,-0.69351992\Bq,0,-0.54053008,0.19509032,0.69351992\Bq,0,-0.52694322
 ,0.,-0.70710678\Bq,0,-0.52694322,0.,0.70710678\\Version=ES64L-G16RevA.
 03\HF=-385.9859931\RMSD=5.985e-09\Dipole=0.,0.,0.\Quadrupole=3.3021379
 ,3.1828598,-6.4849977,0.,0.,0.\PG=C01 [X(C10H8)]\\@


 You don't have to suffer to be a poet.
 Adolescence is enough suffering for anyone.
                             -- John Ciardi
 Job cpu time:       0 days  1 hours  3 minutes  5.9 seconds.
 Elapsed time:       0 days  0 hours  2 minutes 19.5 seconds.
 File lengths (MBytes):  RWF=     59 Int=      0 D2E=      0 Chk=     13 Scr=      1
 Normal termination of Gaussian 16 at Mon Sep  6 16:49:01 2021.
